/*--------------------------------*- C++ -*----------------------------------*\
  =========                 |
  \\      /  F ield         | OpenFOAM: The Open Source CFD Toolbox
   \\    /   O peration     | Website:  https://openfoam.org
    \\  /    A nd           | Version:  8
     \\/     M anipulation  |
\*---------------------------------------------------------------------------*/
FoamFile
{
    version     2.0;
    format      ascii;
    class       volScalarField;
    location    "4.6";
    object      p;
}
// * * * * * * * * * * * * * * * * * * * * * * * * * * * * * * * * * * * * * //

dimensions      [0 2 -2 0 0 0 0];

internalField   nonuniform List<scalar> 
400
(
8.27183e-07
-0.00582857
-0.012967
-0.0184195
-0.0204373
-0.0182437
-0.0117792
-0.00148889
0.0118323
0.0271442
0.0432395
0.0588183
0.072574
0.0833039
0.0900483
0.0922625
0.0900213
0.0842393
0.076876
0.0710624
0.00577749
-0.000222068
-0.00580818
-0.00954706
-0.0106037
-0.00843769
-0.00297504
0.005469
0.0162978
0.0287067
0.0417449
0.0543812
0.0655817
0.0744053
0.0801156
0.0823111
0.0810726
0.0770501
0.0712694
0.0653131
0.0133313
0.00502962
-0.000999579
-0.00442758
-0.0052776
-0.0032688
0.0015973
0.00902244
0.0184969
0.0293442
0.0407605
0.0518648
0.0617638
0.0696317
0.0748023
0.0768733
0.0758369
0.0720811
0.0658006
0.0575306
0.0201355
0.0086918
0.00122152
-0.00267302
-0.00372675
-0.0018901
0.00272631
0.00977946
0.0187752
0.0290899
0.0399869
0.0506491
0.0602281
0.0679112
0.0729984
0.0749967
0.0737609
0.0694512
0.061598
0.0500975
0.024498
0.00976892
0.000585393
-0.00399142
-0.00530684
-0.00351206
0.00116987
0.00832953
0.0174568
0.0279439
0.0390799
0.0500649
0.060044
0.0681602
0.0736215
0.0757929
0.074364
0.0692848
0.0595205
0.044532
0.0251739
0.00714583
-0.00380642
-0.00906173
-0.0105168
-0.00850465
-0.00336158
0.00442453
0.0143083
0.0256739
0.0378086
0.0498982
0.0610431
0.0702982
0.0767297
0.079512
0.078134
0.0723285
0.0605341
0.0418848
0.0210894
-0.000266599
-0.0129389
-0.0187139
-0.0200344
-0.0174186
-0.0113231
-0.00232447
0.00898553
0.0219712
0.0359045
0.0499392
0.0631071
0.0743402
0.0825169
0.0865646
0.0857158
0.0794421
0.0656153
0.0430665
0.0111386
-0.0136225
-0.0278795
-0.0338588
-0.0346081
-0.0308622
-0.0232175
-0.0123499
0.00110007
0.016479
0.0330475
0.0499285
0.0660783
0.0802848
0.0911957
0.0974251
0.0978653
0.0916311
0.0758913
0.0491114
-0.0059716
-0.0342709
-0.0498745
-0.0555531
-0.0550947
-0.0495193
-0.0395982
-0.026118
-0.00976183
0.00881822
0.0288961
0.0495886
0.0697925
0.0881495
0.103042
0.112696
0.115546
0.110187
0.0928293
0.0614064
-0.0318618
-0.0638807
-0.0804214
-0.0850117
-0.0824247
-0.074083
-0.0609856
-0.0440414
-0.0239562
-0.00134163
0.0231408
0.0486562
0.0740908
0.0979674
0.118391
0.133121
0.139984
0.136813
0.118436
0.081929
-0.0686721
-0.104608
-0.121349
-0.123595
-0.11752
-0.105131
-0.0877229
-0.0663302
-0.0416417
-0.0141603
0.0156009
0.0469485
0.0788511
0.109789
0.137619
0.159581
0.172722
0.173773
0.155516
0.113566
-0.119407
-0.159362
-0.174919
-0.172761
-0.161152
-0.142933
-0.119763
-0.0927816
-0.0625821
-0.0294523
0.0063685
0.0444689
0.0840506
0.123698
0.161132
0.193081
0.215663
0.224072
0.208046
0.160628
-0.188633
-0.232246
-0.243943
-0.233952
-0.213699
-0.187159
-0.156377
-0.122505
-0.0859023
-0.0464766
-0.0040189
0.0415344
0.0898378
0.139825
0.189315
0.234685
0.27107
0.29166
0.281738
0.229771
-0.283979
-0.329309
-0.331836
-0.308284
-0.274713
-0.236444
-0.195768
-0.153614
-0.109844
-0.0637492
-0.0144419
0.0388593
0.0965502
0.158273
0.22237
0.285284
0.341393
0.381571
0.38491
0.33183
-0.419322
-0.459675
-0.442354
-0.395796
-0.342133
-0.287743
-0.234619
-0.182933
-0.131613
-0.0789884
-0.0232175
0.0374717
0.10455
0.178834
0.259858
0.344967
0.428613
0.499696
0.529671
0.485388
-0.620535
-0.636747
-0.57868
-0.494196
-0.411244
-0.335661
-0.267783
-0.20598
-0.147539
-0.0893859
-0.028429
0.0383453
0.113804
0.200469
0.299972
0.412022
0.533026
0.651772
0.732769
0.722393
-0.935927
-0.878518
-0.741744
-0.597951
-0.474395
-0.372662
-0.288871
-0.217765
-0.153956
-0.0924664
-0.0287198
0.0416931
0.123261
0.220715
0.338923
0.482152
0.651994
0.841339
1.01527
1.0975
-1.47643
-1.20663
-0.920505
-0.69139
-0.517307
-0.387546
-0.290063
-0.213339
-0.148126
-0.0872179
-0.02458
0.0454551
0.128935
0.233069
0.367101
0.542676
0.771291
1.05932
1.40328
1.73014
-2.53965
-1.63055
-1.04444
-0.710961
-0.495752
-0.352095
-0.254533
-0.183585
-0.126171
-0.0735975
-0.0192714
0.0427844
0.11921
0.21878
0.35481
0.547981
0.82639
1.23658
1.91167
2.92419
-4.36667
-2.04464
-0.973544
-0.563183
-0.357848
-0.240149
-0.170121
-0.123785
-0.0874835
-0.0535126
-0.0166569
0.0276581
0.0846049
0.161727
0.272409
0.442096
0.718216
1.22571
2.41103
4.84853
)
;

boundaryField
{
    movingWall
    {
        type            zeroGradient;
    }
    fixedWalls
    {
        type            zeroGradient;
    }
    frontAndBack
    {
        type            empty;
    }
}


// ************************************************************************* //
