/*--------------------------------*- C++ -*----------------------------------*\
  =========                 |
  \\      /  F ield         | OpenFOAM: The Open Source CFD Toolbox
   \\    /   O peration     | Website:  https://openfoam.org
    \\  /    A nd           | Version:  8
     \\/     M anipulation  |
\*---------------------------------------------------------------------------*/
FoamFile
{
    version     2.0;
    format      ascii;
    class       volScalarField;
    location    "4.6";
    object      T;
}
// * * * * * * * * * * * * * * * * * * * * * * * * * * * * * * * * * * * * * //

dimensions      [0 0 0 1 0 0 0];

internalField   nonuniform List<scalar> 
400
(
293.717
295.107
296.452
297.809
299.205
300.603
301.925
303.091
304.042
304.732
305.121
305.177
304.868
304.175
303.093
301.646
299.895
297.947
295.934
293.962
295.201
299.47
303.626
307.855
312.214
316.531
320.518
323.926
326.596
328.426
329.342
329.282
328.19
326.024
322.777
318.502
313.357
307.626
301.684
295.848
296.783
304.087
311.213
318.468
325.882
333.066
339.499
344.817
348.842
351.493
352.719
352.459
350.637
347.166
341.979
335.094
326.703
317.251
307.391
297.702
298.453
308.924
319.151
329.512
339.898
349.625
357.98
364.606
369.442
372.526
373.896
373.53
371.32
367.079
360.581
351.661
340.39
327.286
313.352
299.614
300.187
313.908
327.296
340.714
353.768
365.429
374.901
382.017
386.978
390.049
391.418
391.129
389.042
384.83
378.009
368.047
354.633
338.112
319.848
301.665
301.967
318.97
335.499
351.769
366.952
379.677
389.249
395.904
400.25
402.846
404.054
403.99
402.496
399.118
393.088
383.388
369.028
349.742
327.009
303.893
303.778
324.057
343.616
362.376
378.931
391.653
400.225
405.522
408.644
410.42
411.342
411.577
410.967
408.992
404.683
396.558
382.768
361.894
334.876
306.298
305.616
329.147
351.555
372.267
389.248
400.839
407.447
410.783
412.384
413.225
413.83
414.375
414.725
414.377
412.309
406.748
395.031
374.165
343.503
308.875
307.467
334.146
359.104
381.152
397.573
407.019
411.048
412.244
412.37
412.365
412.695
413.51
414.714
415.9
416.148
413.645
405.175
386.074
352.978
311.636
309.363
339.187
366.404
388.949
403.744
410.302
411.591
410.851
409.768
409.109
409.227
410.233
412.08
414.498
416.792
417.35
412.802
397.085
363.333
314.655
311.251
343.952
372.895
395.273
407.72
411.086
409.876
407.634
405.688
404.586
404.553
405.661
407.905
411.162
415.017
418.257
417.784
406.674
374.456
318.16
313.263
348.936
379.325
400.548
409.833
409.954
406.755
403.516
401.036
399.68
399.549
400.688
403.11
406.809
411.653
416.935
420.233
414.42
386.058
322.666
315.272
353.491
384.454
403.995
410.011
407.459
403.012
399.239
396.491
395.025
394.839
395.971
398.423
402.236
407.512
414.05
420.454
420.06
397.682
329.039
317.668
358.483
389.942
406.879
409.346
404.58
399.396
395.376
392.552
391.065
390.855
391.966
394.382
398.096
403.351
410.318
418.899
423.51
408.765
338.327
319.805
363.214
393.647
407.666
407.198
401.328
396.191
392.35
389.68
388.251
388.031
389.082
391.43
394.916
399.856
406.492
416.146
424.855
418.734
351.31
323.951
368.332
398.165
408.781
405.9
399.656
394.806
391.204
388.725
387.375
387.138
388.003
390.166
393.238
397.68
403.372
412.936
424.349
427.105
367.927
324.691
373.793
400.226
407.547
403.829
398.501
394.627
391.946
390.212
389.267
389.287
389.896
391.673
393.895
397.583
401.866
410.3
422.492
433.566
386.923
333.599
378.273
402.959
408.634
406.394
403.05
400.404
398.336
397.192
396.184
396.18
396.038
397.151
397.965
400.614
403.135
409.916
420.396
438.18
406.177
327.343
381.481
399.29
404.643
405.886
405.158
404.945
403.904
404.08
403.296
404.068
403.603
405.139
405.132
407.944
409.056
415.235
421.178
442.228
423.992
336.396
363.489
378.182
386.79
394.152
398.892
404.33
407.538
412.322
414.558
419.19
420.603
425.465
426.074
431.69
431.489
439.077
438.105
452.247
441.199
)
;

boundaryField
{
    movingWall
    {
        type            fixedValue;
        value           uniform 493;
    }
    fixedWalls
    {
        type            fixedValue;
        value           uniform 293;
    }
    frontAndBack
    {
        type            empty;
    }
}


// ************************************************************************* //
