/*--------------------------------*- C++ -*----------------------------------*\
  =========                 |
  \\      /  F ield         | OpenFOAM: The Open Source CFD Toolbox
   \\    /   O peration     | Website:  https://openfoam.org
    \\  /    A nd           | Version:  8
     \\/     M anipulation  |
\*---------------------------------------------------------------------------*/
FoamFile
{
    version     2.0;
    format      ascii;
    class       volScalarField;
    location    "3.1";
    object      p;
}
// * * * * * * * * * * * * * * * * * * * * * * * * * * * * * * * * * * * * * //

dimensions      [0 2 -2 0 0 0 0];

internalField   nonuniform List<scalar> 
400
(
1.4926e-06
-0.00582746
-0.0129657
-0.0184183
-0.0204359
-0.0182424
-0.0117779
-0.00148768
0.0118334
0.0271453
0.0432408
0.0588196
0.0725754
0.0833053
0.0900496
0.0922637
0.0900225
0.0842405
0.0768772
0.0710636
0.00577864
-0.000220876
-0.00580699
-0.00954586
-0.0106025
-0.00843637
-0.00297369
0.00547032
0.0162991
0.0287079
0.0417461
0.0543824
0.065583
0.0744066
0.080117
0.0823125
0.0810739
0.0770514
0.0712706
0.0653143
0.0133326
0.00503088
-0.000998371
-0.00442641
-0.00527642
-0.00326756
0.00159863
0.00902382
0.0184983
0.0293455
0.0407617
0.051866
0.061765
0.0696329
0.0748036
0.0768747
0.0758382
0.0720824
0.0658019
0.0575318
0.0201368
0.0086931
0.0012228
-0.00267181
-0.0037256
-0.00188895
0.00272755
0.00978081
0.0187766
0.0290913
0.0399882
0.0506503
0.0602293
0.0679124
0.0729997
0.074998
0.0737623
0.0694525
0.0615993
0.0500987
0.0244993
0.00977023
0.000586734
-0.00399013
-0.00530565
-0.00351093
0.00117101
0.00833078
0.0174582
0.0279453
0.0390812
0.0500662
0.0600452
0.0681614
0.0736227
0.0757941
0.0743653
0.0692861
0.0595218
0.0445332
0.0251751
0.0071471
-0.00380506
-0.00906036
-0.0105155
-0.00850347
-0.00336047
0.00442566
0.0143096
0.0256752
0.03781
0.0498996
0.0610444
0.0702994
0.0767309
0.0795131
0.0781352
0.0723298
0.0605355
0.0418861
0.0210906
-0.000265393
-0.0129376
-0.0187125
-0.020033
-0.0174173
-0.0113219
-0.00232338
0.00898666
0.0219724
0.0359059
0.0499406
0.0631084
0.0743416
0.0825181
0.0865657
0.0857169
0.0794433
0.0656166
0.0430678
0.0111398
-0.0136213
-0.0278782
-0.0338574
-0.0346067
-0.0308608
-0.0232163
-0.0123487
0.00110117
0.0164801
0.0330488
0.0499299
0.0660797
0.0802862
0.091197
0.0974263
0.0978665
0.0916323
0.0758925
0.0491127
-0.0059703
-0.0342697
-0.0498733
-0.0555519
-0.0550934
-0.0495178
-0.0395968
-0.0261167
-0.00976066
0.00881933
0.0288973
0.0495898
0.0697938
0.0881509
0.103044
0.112698
0.115547
0.110188
0.0928305
0.0614077
-0.0318604
-0.0638794
-0.0804203
-0.0850105
-0.0824234
-0.0740816
-0.0609842
-0.04404
-0.0239549
-0.00134044
0.023142
0.0486573
0.074092
0.0979686
0.118392
0.133122
0.139985
0.136814
0.118437
0.0819302
-0.0686707
-0.104607
-0.121348
-0.123593
-0.117519
-0.10513
-0.0877216
-0.0663288
-0.0416403
-0.014159
0.0156021
0.0469497
0.0788522
0.10979
0.13762
0.159582
0.172723
0.173775
0.155517
0.113567
-0.119406
-0.15936
-0.174918
-0.17276
-0.161151
-0.142932
-0.119762
-0.0927803
-0.0625807
-0.0294509
0.00636983
0.0444701
0.0840517
0.1237
0.161133
0.193083
0.215665
0.224074
0.208047
0.160629
-0.188632
-0.232245
-0.243942
-0.233951
-0.213697
-0.187157
-0.156376
-0.122504
-0.085901
-0.0464752
-0.00401752
0.0415357
0.089839
0.139826
0.189316
0.234686
0.271071
0.291661
0.28174
0.229773
-0.283978
-0.329307
-0.331834
-0.308283
-0.274711
-0.236442
-0.195767
-0.153613
-0.109843
-0.0637479
-0.0144406
0.0388607
0.0965516
0.158274
0.222371
0.285285
0.341394
0.381572
0.384911
0.331831
-0.419321
-0.459674
-0.442353
-0.395794
-0.342131
-0.287742
-0.234618
-0.182932
-0.131612
-0.0789872
-0.0232163
0.037473
0.104551
0.178835
0.259859
0.344968
0.428614
0.499698
0.529673
0.485389
-0.620534
-0.636746
-0.578679
-0.494195
-0.411242
-0.33566
-0.267782
-0.205979
-0.147538
-0.0893847
-0.0284278
0.0383465
0.113805
0.20047
0.299973
0.412023
0.533028
0.651773
0.73277
0.722394
-0.935925
-0.878516
-0.741743
-0.59795
-0.474394
-0.37266
-0.28887
-0.217764
-0.153955
-0.0924652
-0.0287186
0.0416943
0.123262
0.220717
0.338925
0.482153
0.651995
0.84134
1.01527
1.0975
-1.47642
-1.20663
-0.920504
-0.691389
-0.517306
-0.387545
-0.290062
-0.213338
-0.148125
-0.0872166
-0.0245787
0.0454563
0.128936
0.23307
0.367102
0.542677
0.771292
1.05932
1.40329
1.73014
-2.53965
-1.63055
-1.04444
-0.71096
-0.495751
-0.352094
-0.254532
-0.183584
-0.12617
-0.0735961
-0.0192701
0.0427857
0.119211
0.218781
0.354811
0.547983
0.826392
1.23658
1.91168
2.92419
-4.36667
-2.04463
-0.973543
-0.563181
-0.357847
-0.240147
-0.17012
-0.123784
-0.0874823
-0.0535114
-0.0166556
0.0276594
0.0846062
0.161728
0.27241
0.442098
0.718218
1.22571
2.41103
4.84853
)
;

boundaryField
{
    movingWall
    {
        type            zeroGradient;
    }
    fixedWalls
    {
        type            zeroGradient;
    }
    frontAndBack
    {
        type            empty;
    }
}


// ************************************************************************* //
