/*--------------------------------*- C++ -*----------------------------------*\
  =========                 |
  \\      /  F ield         | OpenFOAM: The Open Source CFD Toolbox
   \\    /   O peration     | Website:  https://openfoam.org
    \\  /    A nd           | Version:  8
     \\/     M anipulation  |
\*---------------------------------------------------------------------------*/
FoamFile
{
    version     2.0;
    format      ascii;
    class       volScalarField;
    location    "3.1";
    object      T;
}
// * * * * * * * * * * * * * * * * * * * * * * * * * * * * * * * * * * * * * //

dimensions      [0 0 0 1 0 0 0];

internalField   nonuniform List<scalar> 
400
(
293.605
294.794
295.987
297.235
298.548
299.873
301.131
302.246
303.162
303.836
304.231
304.312
304.05
303.423
302.426
301.08
299.445
297.621
295.738
293.897
294.865
298.536
302.244
306.155
310.268
314.37
318.173
321.442
324.027
325.831
326.782
326.815
325.872
323.907
320.907
316.92
312.096
306.711
301.131
295.664
296.228
302.556
308.963
315.717
322.741
329.586
335.738
340.855
344.771
347.408
348.713
348.624
347.059
343.921
339.132
332.698
324.798
315.868
306.553
297.423
297.689
306.832
316.097
325.796
335.665
344.946
352.94
359.318
364.024
367.103
368.595
368.475
366.629
362.854
356.905
348.594
337.97
325.536
312.291
299.26
299.227
311.292
323.498
336.11
348.526
359.634
368.655
375.447
380.222
383.263
384.772
384.792
383.176
379.578
373.48
364.311
351.72
336.027
318.592
301.249
300.819
315.863
331.006
346.329
360.743
372.778
381.759
387.954
392.003
394.504
395.844
396.147
395.246
392.656
387.562
378.885
365.57
347.304
325.558
303.416
302.451
320.482
338.461
356.124
371.746
383.585
391.356
395.993
398.662
400.252
401.29
401.954
402.075
401.093
397.975
391.154
378.683
359.064
333.215
305.759
304.114
325.125
345.76
365.197
381.027
391.473
397.005
399.433
400.399
400.95
401.651
402.693
403.926
404.8
404.217
400.291
390.222
370.898
341.618
308.271
305.785
329.659
352.642
373.221
388.22
396.192
398.818
398.833
398.128
397.72
398.122
399.499
401.744
404.398
406.453
405.96
399.528
382.314
350.85
310.967
307.512
334.294
359.312
380.114
393.139
397.838
397.367
395.163
393.047
391.867
392.026
393.654
396.695
400.83
405.269
408.249
406.182
392.761
360.936
313.916
309.188
338.492
365.034
385.418
395.723
396.818
393.488
389.502
386.325
384.583
384.554
386.331
389.906
395.115
401.451
407.543
410.038
401.697
371.756
317.344
311.051
343.18
370.827
389.657
396.338
393.752
388.089
382.853
378.962
376.857
376.687
378.524
382.384
388.234
395.866
404.421
411.198
408.686
383.01
321.76
312.738
346.881
374.993
391.852
394.864
389.237
382.052
376.082
371.785
369.483
369.215
371.049
374.999
381.099
389.401
399.584
409.969
413.451
394.228
328.018
315.071
351.817
379.83
393.594
392.593
384.415
376.289
369.955
365.514
363.147
362.819
364.603
368.51
374.55
382.952
393.828
406.827
415.899
404.836
337.145
316.554
355.159
382.288
392.909
388.73
379.344
371.273
365.169
360.934
358.647
358.286
359.946
363.689
369.408
377.442
388.064
402.421
416.124
414.246
349.898
320.964
360.564
386.207
393.001
386.228
376.524
368.918
363.25
359.368
357.248
356.87
358.246
361.61
366.655
373.901
383.372
397.643
414.419
421.97
366.194
320.25
363.876
386.704
390.42
383.195
374.961
368.881
364.604
361.816
360.316
360.247
361.268
363.966
367.74
373.674
381.159
393.855
411.42
427.719
384.768
330.121
369.232
389.567
391.875
386.871
381.428
377.26
374.143
372.308
370.957
370.882
371.01
372.684
374.515
378.634
383.427
393.422
408.623
431.68
403.53
321.615
369.598
384.966
388.797
388.923
387.434
386.669
385.313
385.272
384.466
385.267
385.042
386.872
387.456
390.988
393.372
401.23
410.215
435.574
420.903
333.922
358.294
371.847
379.906
386.92
391.507
396.815
400.019
404.759
407.073
411.706
413.272
418.176
419.038
424.771
425.014
432.907
432.846
447.68
438.128
)
;

boundaryField
{
    movingWall
    {
        type            fixedValue;
        value           uniform 493;
    }
    fixedWalls
    {
        type            fixedValue;
        value           uniform 293;
    }
    frontAndBack
    {
        type            empty;
    }
}


// ************************************************************************* //
