/*--------------------------------*- C++ -*----------------------------------*\
  =========                 |
  \\      /  F ield         | OpenFOAM: The Open Source CFD Toolbox
   \\    /   O peration     | Website:  https://openfoam.org
    \\  /    A nd           | Version:  8
     \\/     M anipulation  |
\*---------------------------------------------------------------------------*/
FoamFile
{
    version     2.0;
    format      ascii;
    class       volScalarField;
    location    "10";
    object      p;
}
// * * * * * * * * * * * * * * * * * * * * * * * * * * * * * * * * * * * * * //

dimensions      [0 2 -2 0 0 0 0];

internalField   nonuniform List<scalar> 
400
(
1.02718e-07
-0.0058298
-0.0129683
-0.0184209
-0.0204386
-0.0182451
-0.0117805
-0.00149026
0.0118309
0.0271428
0.0432382
0.0588169
0.0725726
0.0833025
0.0900469
0.0922611
0.0900199
0.0842379
0.0768746
0.0710611
0.00577626
-0.000223376
-0.00580951
-0.00954841
-0.0106051
-0.00843906
-0.00297641
0.00546763
0.0162964
0.0287053
0.0417435
0.0543798
0.0655803
0.0744039
0.0801143
0.0823098
0.0810713
0.0770488
0.071268
0.0653117
0.0133299
0.00502828
-0.00100092
-0.00442893
-0.00527896
-0.00327017
0.00159593
0.00902107
0.0184955
0.0293429
0.0407591
0.0518635
0.0617624
0.0696303
0.0748009
0.076872
0.0758355
0.0720797
0.0657993
0.0575292
0.0201341
0.00869045
0.00122017
-0.00267437
-0.00372811
-0.00189147
0.00272493
0.00977808
0.0187738
0.0290885
0.0399856
0.0506478
0.0602268
0.0679098
0.0729971
0.0749953
0.0737596
0.0694498
0.0615966
0.0500961
0.0244967
0.00976755
0.00058403
-0.00399278
-0.0053082
-0.00351342
0.0011685
0.00832815
0.0174554
0.0279425
0.0390785
0.0500635
0.0600426
0.0681589
0.0736202
0.0757915
0.0743627
0.0692834
0.0595191
0.0445306
0.0251725
0.00714445
-0.00380779
-0.0090631
-0.0105181
-0.00850601
-0.00336294
0.00442315
0.0143069
0.0256725
0.0378072
0.0498968
0.0610417
0.0702968
0.0767284
0.0795106
0.0781326
0.0723271
0.0605328
0.0418834
0.021088
-0.000267976
-0.0129403
-0.0187152
-0.0200358
-0.0174199
-0.0113244
-0.00232584
0.00898416
0.0219698
0.0359031
0.0499378
0.0631057
0.0743389
0.0825155
0.0865632
0.0857144
0.0794407
0.0656139
0.0430651
0.0111372
-0.0136239
-0.0278808
-0.0338601
-0.0346095
-0.0308635
-0.0232189
-0.0123513
0.0010987
0.0164776
0.0330462
0.0499272
0.0660769
0.0802835
0.0911943
0.0974237
0.097864
0.0916297
0.0758899
0.04911
-0.00597297
-0.0342723
-0.0498758
-0.0555545
-0.0550961
-0.0495206
-0.0395996
-0.0261194
-0.00976319
0.00881686
0.0288948
0.0495872
0.0697911
0.0881482
0.103041
0.112695
0.115544
0.110186
0.092828
0.0614051
-0.0318631
-0.063882
-0.0804228
-0.085013
-0.082426
-0.0740844
-0.060987
-0.0440427
-0.0239576
-0.00134299
0.0231395
0.0486548
0.0740894
0.097966
0.11839
0.133119
0.139982
0.136812
0.118435
0.0819276
-0.0686734
-0.104609
-0.12135
-0.123596
-0.117521
-0.105133
-0.0877243
-0.0663316
-0.0416431
-0.0141617
0.0155995
0.0469471
0.0788497
0.109787
0.137618
0.159579
0.172721
0.173772
0.155514
0.113565
-0.119408
-0.159363
-0.174921
-0.172763
-0.161154
-0.142935
-0.119765
-0.092783
-0.0625834
-0.0294537
0.00636713
0.0444675
0.0840492
0.123697
0.16113
0.19308
0.215662
0.224071
0.208045
0.160627
-0.188634
-0.232248
-0.243944
-0.233954
-0.2137
-0.18716
-0.156378
-0.122507
-0.0859037
-0.046478
-0.00402027
0.041533
0.0898364
0.139824
0.189313
0.234684
0.271069
0.291659
0.281737
0.22977
-0.28398
-0.32931
-0.331837
-0.308285
-0.274714
-0.236445
-0.19577
-0.153615
-0.109845
-0.0637506
-0.0144433
0.038858
0.0965488
0.158271
0.222369
0.285283
0.341392
0.38157
0.384909
0.331829
-0.419324
-0.459676
-0.442355
-0.395797
-0.342134
-0.287744
-0.234621
-0.182935
-0.131614
-0.0789898
-0.0232189
0.0374704
0.104548
0.178833
0.259856
0.344965
0.428611
0.499695
0.52967
0.485387
-0.620536
-0.636748
-0.578681
-0.494197
-0.411245
-0.335663
-0.267785
-0.205982
-0.147541
-0.0893872
-0.0284304
0.0383439
0.113802
0.200467
0.299971
0.412021
0.533025
0.651771
0.732767
0.722391
-0.935928
-0.878519
-0.741745
-0.597952
-0.474397
-0.372663
-0.288872
-0.217767
-0.153957
-0.0924678
-0.0287212
0.0416917
0.123259
0.220714
0.338922
0.482151
0.651993
0.841338
1.01527
1.0975
-1.47643
-1.20663
-0.920507
-0.691391
-0.517308
-0.387547
-0.290065
-0.213341
-0.148128
-0.0872192
-0.0245814
0.0454537
0.128934
0.233067
0.367099
0.542674
0.771289
1.05931
1.40328
1.73014
-2.53965
-1.63055
-1.04444
-0.710962
-0.495754
-0.352097
-0.254534
-0.183587
-0.126173
-0.0735988
-0.0192728
0.0427831
0.119208
0.218779
0.354808
0.54798
0.826389
1.23658
1.91167
2.92419
-4.36667
-2.04464
-0.973546
-0.563184
-0.35785
-0.24015
-0.170123
-0.123786
-0.0874849
-0.053514
-0.0166583
0.0276568
0.0846035
0.161726
0.272407
0.442095
0.718215
1.2257
2.41103
4.84853
)
;

boundaryField
{
    movingWall
    {
        type            zeroGradient;
    }
    fixedWalls
    {
        type            zeroGradient;
    }
    frontAndBack
    {
        type            empty;
    }
}


// ************************************************************************* //
