/*--------------------------------*- C++ -*----------------------------------*\
  =========                 |
  \\      /  F ield         | OpenFOAM: The Open Source CFD Toolbox
   \\    /   O peration     | Website:  https://openfoam.org
    \\  /    A nd           | Version:  8
     \\/     M anipulation  |
\*---------------------------------------------------------------------------*/
FoamFile
{
    version     2.0;
    format      ascii;
    class       volScalarField;
    location    "10";
    object      T;
}
// * * * * * * * * * * * * * * * * * * * * * * * * * * * * * * * * * * * * * //

dimensions      [0 0 0 1 0 0 0];

internalField   nonuniform List<scalar> 
400
(
293.801
295.349
296.828
298.299
299.795
301.283
302.682
303.909
304.902
305.613
306
306.031
305.675
304.913
303.744
302.194
300.328
298.257
296.118
294.023
295.459
300.203
304.763
309.333
313.993
318.578
322.791
326.37
329.148
331.019
331.91
331.759
330.514
328.139
324.634
320.061
314.589
308.51
302.212
296.022
297.217
305.316
313.109
320.924
328.831
336.449
343.238
348.816
352.994
355.69
356.85
356.42
354.331
350.505
344.893
337.527
328.618
318.625
308.214
297.974
299.064
310.646
321.797
332.929
343.99
354.303
363.133
370.103
375.138
378.272
379.54
378.922
376.321
371.57
364.468
354.88
342.906
329.084
314.427
299.969
300.976
316.116
330.681
345.076
358.985
371.392
381.475
389.046
394.286
397.442
398.691
398.072
395.46
390.558
382.923
372.072
357.742
340.313
321.157
302.096
302.933
321.66
339.613
357.072
373.307
386.969
397.337
404.619
409.378
412.133
413.22
412.748
410.577
406.291
399.187
388.323
372.785
352.364
328.555
304.397
304.922
327.228
348.463
368.637
386.475
400.383
410.01
416.174
419.893
421.933
422.746
422.486
421.02
417.879
412.18
402.552
387.259
364.975
336.666
306.875
306.941
332.799
357.14
379.523
398.074
411.174
419.174
423.674
426.097
427.328
427.842
427.799
427.09
425.28
421.453
413.982
400.365
377.751
345.552
309.526
308.982
338.31
365.474
389.473
407.809
419.167
424.99
427.696
428.896
429.426
429.69
429.819
429.748
429.143
427.216
422.33
411.487
390.23
355.305
312.363
311.066
343.823
373.549
398.407
415.548
424.491
428.026
429.172
429.438
429.473
429.559
429.784
430.131
430.412
430.077
427.725
420.256
401.894
365.965
315.462
313.185
349.222
380.963
406.006
421.268
427.54
429.059
429.092
428.779
428.539
428.517
428.759
429.285
430.056
430.813
430.575
426.568
412.239
377.433
319.053
315.375
354.6
388.225
412.61
425.276
428.868
428.879
428.292
427.72
427.391
427.324
427.53
428.042
428.933
430.222
431.446
430.551
420.867
389.431
323.66
317.733
360.098
394.504
417.617
427.54
428.972
428.157
427.362
426.755
426.458
426.392
426.556
426.959
427.708
429.035
430.97
432.513
427.532
401.517
330.163
320.229
365.273
400.897
422.002
428.961
428.655
427.434
426.613
426.072
425.842
425.802
425.955
426.276
426.79
427.839
429.772
432.879
432.163
413.145
339.63
323.064
371.521
406.07
424.614
428.999
427.802
426.702
426.057
425.64
425.459
425.44
425.604
425.947
426.297
427.012
428.412
432.151
434.84
423.757
352.867
326.984
376.505
411.501
427.145
429.346
427.73
426.701
426.028
425.575
425.343
425.309
425.425
425.851
426.119
426.674
427.321
430.878
435.767
432.877
369.841
329.276
384.309
415.362
427.516
428.434
427.034
426.233
425.818
425.604
425.472
425.632
425.664
426.133
426.175
426.751
426.733
429.674
435.281
440.168
389.308
337.231
388.05
418.204
428.315
429.667
429.088
428.481
427.845
427.651
427.125
427.221
426.718
427.057
426.493
427.152
426.68
429.33
434.025
445.545
409.116
333.384
394.256
415.218
422.654
425.414
425.731
426.281
425.698
426.194
425.486
426.251
425.516
426.694
425.962
427.868
427.407
431.513
433.815
449.767
427.431
338.985
368.972
384.972
394.251
402.059
407.018
412.642
415.89
420.755
422.93
427.584
428.847
433.674
434.012
439.499
438.796
446.025
444.005
457.329
444.604
)
;

boundaryField
{
    movingWall
    {
        type            fixedValue;
        value           uniform 493;
    }
    fixedWalls
    {
        type            fixedValue;
        value           uniform 293;
    }
    frontAndBack
    {
        type            empty;
    }
}


// ************************************************************************* //
