/*--------------------------------*- C++ -*----------------------------------*\
  =========                 |
  \\      /  F ield         | OpenFOAM: The Open Source CFD Toolbox
   \\    /   O peration     | Website:  https://openfoam.org
    \\  /    A nd           | Version:  8
     \\/     M anipulation  |
\*---------------------------------------------------------------------------*/
FoamFile
{
    version     2.0;
    format      ascii;
    class       volScalarField;
    location    "9";
    object      T;
}
// * * * * * * * * * * * * * * * * * * * * * * * * * * * * * * * * * * * * * //

dimensions      [0 0 0 1 0 0 0];

internalField   nonuniform List<scalar> 
400
(
293.796
295.333
296.802
298.265
299.754
301.235
302.629
303.852
304.842
305.55
305.938
305.97
305.618
304.861
303.698
302.155
300.298
298.236
296.105
294.019
295.441
300.153
304.685
309.23
313.869
318.435
322.631
326.197
328.967
330.835
331.728
331.583
330.349
327.989
324.502
319.951
314.502
308.448
302.175
296.01
297.188
305.232
312.979
320.753
328.624
336.21
342.973
348.532
352.699
355.391
356.556
356.138
354.068
350.268
344.685
337.354
328.482
318.528
308.156
297.955
299.023
310.528
321.614
332.69
343.701
353.972
362.766
369.711
374.731
377.861
379.136
378.536
375.963
371.249
364.191
354.65
342.727
328.956
314.351
299.944
300.922
315.964
330.445
344.77
358.616
370.967
381.005
388.542
393.762
396.911
398.168
397.573
394.999
390.147
382.57
371.784
357.52
340.156
321.064
302.065
302.866
321.474
339.325
356.698
372.855
386.448
396.757
403.993
408.721
411.464
412.56
412.117
409.995
405.774
398.748
387.968
372.516
352.176
328.444
304.361
304.843
327.008
348.122
368.193
385.936
399.757
409.306
415.406
419.082
421.102
421.922
421.699
420.294
417.238
411.64
402.12
386.936
364.754
336.537
306.834
306.849
332.544
356.746
379.006
397.441
410.43
418.328
422.743
425.106
426.308
426.828
426.828
426.197
424.492
420.793
413.461
399.981
377.493
345.405
309.479
308.876
338.018
365.024
388.879
407.074
418.291
423.983
426.578
427.699
428.19
428.458
428.638
428.659
428.185
426.416
421.704
411.032
389.931
355.138
312.311
310.947
343.497
373.042
397.73
414.698
423.466
426.837
427.844
428.011
427.995
428.083
428.365
428.821
429.259
429.115
426.975
419.719
401.547
365.776
315.404
313.049
348.851
380.389
405.236
420.29
426.349
427.668
427.533
427.1
426.797
426.774
427.08
427.731
428.685
429.668
429.684
425.934
411.838
377.219
318.988
315.226
354.2
387.59
411.742
424.159
427.497
427.272
426.49
425.776
425.372
425.3
425.575
426.228
427.325
428.875
430.395
429.805
420.402
389.188
323.589
317.559
359.629
393.785
416.635
426.271
427.41
426.328
425.313
424.547
424.164
424.088
424.324
424.879
425.854
427.471
429.743
431.641
426.993
401.241
330.082
320.048
364.79
400.111
420.91
427.539
426.905
425.391
424.334
423.623
423.299
423.247
423.471
423.948
424.699
426.058
428.36
431.867
431.538
412.83
339.536
322.833
370.93
405.177
423.388
427.416
425.875
424.476
423.594
423.009
422.735
422.701
422.931
423.424
424.006
425.034
426.819
430.991
434.118
423.395
352.755
326.768
375.921
410.54
425.815
427.642
425.685
424.373
423.482
422.878
422.563
422.514
422.685
423.241
423.717
424.56
425.579
429.577
434.941
432.461
369.703
328.95
383.557
414.271
426.069
426.645
424.955
423.926
423.343
423.016
422.824
422.973
423.048
423.614
423.818
424.624
424.924
428.268
434.355
439.691
389.137
336.972
387.348
417.103
426.888
427.975
427.193
426.436
425.693
425.43
424.867
424.956
424.479
424.876
424.414
425.219
424.968
427.921
433.039
445.013
408.905
332.952
393.341
414.071
421.353
424.001
424.241
424.734
424.117
424.59
423.876
424.64
423.925
425.129
424.45
426.422
426.077
430.334
432.901
449.223
427.183
338.8
368.58
384.485
393.716
401.491
406.434
412.044
415.289
420.148
422.327
426.979
428.252
433.082
433.439
438.936
438.269
445.523
443.579
456.963
444.359
)
;

boundaryField
{
    movingWall
    {
        type            fixedValue;
        value           uniform 493;
    }
    fixedWalls
    {
        type            fixedValue;
        value           uniform 293;
    }
    frontAndBack
    {
        type            empty;
    }
}


// ************************************************************************* //
