/*--------------------------------*- C++ -*----------------------------------*\
  =========                 |
  \\      /  F ield         | OpenFOAM: The Open Source CFD Toolbox
   \\    /   O peration     | Website:  https://openfoam.org
    \\  /    A nd           | Version:  8
     \\/     M anipulation  |
\*---------------------------------------------------------------------------*/
FoamFile
{
    version     2.0;
    format      ascii;
    class       volScalarField;
    location    "0.3";
    object      T;
}
// * * * * * * * * * * * * * * * * * * * * * * * * * * * * * * * * * * * * * //

dimensions      [0 0 0 1 0 0 0];

internalField   nonuniform List<scalar> 
400
(
292.913
292.882
292.95
293.004
293.024
293.028
293.028
293.029
293.031
293.032
293.035
293.038
293.037
293.033
293.026
293.018
293.01
293.003
293
292.999
292.879
292.848
292.959
293.043
293.067
293.068
293.068
293.071
293.075
293.081
293.09
293.097
293.095
293.087
293.074
293.058
293.04
293.023
293.009
293.001
292.941
292.94
293.02
293.072
293.08
293.077
293.077
293.08
293.089
293.102
293.119
293.133
293.143
293.15
293.147
293.131
293.101
293.066
293.033
293.009
292.993
293.015
293.056
293.074
293.07
293.065
293.066
293.074
293.089
293.113
293.148
293.198
293.263
293.327
293.358
293.33
293.246
293.145
293.068
293.019
293.016
293.046
293.064
293.062
293.053
293.049
293.054
293.07
293.098
293.158
293.286
293.507
293.808
294.107
294.27
294.182
293.845
293.433
293.155
293.036
293.022
293.054
293.059
293.049
293.04
293.039
293.054
293.088
293.175
293.413
293.926
294.774
295.869
296.93
297.54
297.317
296.192
294.648
293.518
293.09
293.024
293.053
293.051
293.039
293.033
293.043
293.081
293.191
293.524
294.365
295.976
298.393
301.322
304.115
305.868
305.654
302.995
298.642
294.863
293.296
293.027
293.064
293.068
293.042
293.036
293.069
293.181
293.539
294.55
296.741
300.398
305.366
311.065
316.544
320.499
321.266
317.233
308.416
298.768
293.923
293.023
293.005
292.976
293.021
293.056
293.142
293.445
294.368
296.595
300.671
306.58
313.862
321.91
330.025
337.089
340.936
338.184
325.979
307.561
295.442
293.068
293.287
293.286
293.113
293.099
293.296
293.959
295.71
299.215
304.547
311.179
318.636
326.911
336.25
346.38
355.351
358.431
348.439
322.686
298.36
292.919
292.479
292.599
292.911
293.136
293.547
294.643
297.041
300.906
305.633
310.548
315.75
322.177
331.043
343.025
357.116
368.761
367.768
342.112
302.888
293.327
294.246
293.817
293.404
293.363
293.837
295.159
297.498
300.377
302.976
305.092
307.538
311.745
319.265
331.426
348.465
367.344
377.704
360.497
309.001
292.462
291.225
292.026
292.612
293.125
293.9
295.165
296.769
298.092
298.682
298.88
299.678
302.295
308.154
319.066
336.579
359.668
379.337
373.946
317.103
294.16
295.827
294.545
293.912
293.79
294.11
294.778
295.46
295.685
295.372
294.959
295.1
296.521
300.396
308.963
325.077
350.093
376.857
383.092
328.012
290.818
289.253
291.126
292.029
292.688
293.298
293.883
294.232
294.173
293.814
293.46
293.399
293.963
295.929
301.604
314.757
339.567
371.819
389.649
341.547
297.199
298.091
295.75
294.761
294.277
294.103
294.031
293.887
293.623
293.319
293.117
293.086
293.415
294.325
297.683
307.106
329.354
364.585
393.747
356.49
286.046
286.787
289.387
290.625
291.457
292.023
292.408
292.645
292.76
292.791
292.937
293.047
293.575
294.369
296.946
303.459
321.661
356.536
395.616
372.233
303.42
301.188
298.527
297.078
296.048
295.359
294.84
294.343
294.143
293.822
294.001
294.048
294.962
296.049
299.264
304.972
319.562
350.263
396.147
388.007
278.889
281.342
283.426
284.918
286.508
287.727
289.533
290.847
292.964
294.499
297.104
299.089
302.611
305.691
311.447
318.076
331.521
353.576
398.671
402.663
315.75
319.749
325.452
330.531
336.349
341.097
346.735
350.991
356.47
360.194
365.674
368.904
374.692
377.568
384.315
387.34
396.878
401.835
419.997
419.46
)
;

boundaryField
{
    movingWall
    {
        type            fixedValue;
        value           uniform 493;
    }
    fixedWalls
    {
        type            fixedValue;
        value           uniform 293;
    }
    frontAndBack
    {
        type            empty;
    }
}


// ************************************************************************* //
