/*--------------------------------*- C++ -*----------------------------------*\
  =========                 |
  \\      /  F ield         | OpenFOAM: The Open Source CFD Toolbox
   \\    /   O peration     | Website:  https://openfoam.org
    \\  /    A nd           | Version:  8
     \\/     M anipulation  |
\*---------------------------------------------------------------------------*/
FoamFile
{
    version     2.0;
    format      ascii;
    class       volScalarField;
    location    "7.6";
    object      p;
}
// * * * * * * * * * * * * * * * * * * * * * * * * * * * * * * * * * * * * * //

dimensions      [0 2 -2 0 0 0 0];

internalField   nonuniform List<scalar> 
400
(
2.58898e-07
-0.00582955
-0.012968
-0.0184206
-0.0204383
-0.0182447
-0.0117802
-0.00149
0.0118311
0.027143
0.0432384
0.0588172
0.072573
0.0833029
0.0900473
0.0922614
0.0900201
0.0842381
0.0768748
0.0710612
0.00577655
-0.000223102
-0.00580927
-0.00954817
-0.0106048
-0.00843871
-0.00297602
0.005468
0.0162967
0.0287056
0.0417437
0.05438
0.0655806
0.0744043
0.0801147
0.0823101
0.0810716
0.0770491
0.0712682
0.0653119
0.0133303
0.0050286
-0.00100065
-0.00442872
-0.00527875
-0.00326991
0.00159629
0.00902149
0.018496
0.0293432
0.0407593
0.0518636
0.0617626
0.0696305
0.0748013
0.0768724
0.0758359
0.0720801
0.0657996
0.0575294
0.0201344
0.0086908
0.0012205
-0.00267411
-0.00372792
-0.00189129
0.0027252
0.00977846
0.0187743
0.0290889
0.0399859
0.050648
0.0602269
0.06791
0.0729973
0.0749957
0.07376
0.0694502
0.061597
0.0500964
0.0244969
0.0097679
0.000584422
-0.00399244
-0.00530796
-0.00351326
0.00116866
0.00832842
0.0174558
0.027943
0.0390789
0.0500639
0.0600428
0.068159
0.0736203
0.0757917
0.074363
0.0692838
0.0595195
0.0445309
0.0251727
0.00714475
-0.0038074
-0.00906268
-0.0105178
-0.00850579
-0.0033628
0.0044233
0.0143072
0.0256729
0.0378077
0.0498973
0.0610421
0.0702971
0.0767285
0.0795108
0.0781328
0.0723274
0.0605331
0.0418838
0.0210882
-0.000267745
-0.01294
-0.0187148
-0.0200354
-0.0174196
-0.0113242
-0.00232571
0.0089843
0.02197
0.0359035
0.0499383
0.0631061
0.0743392
0.0825158
0.0865634
0.0857146
0.0794409
0.0656142
0.0430655
0.0111374
-0.0136237
-0.0278806
-0.0338598
-0.0346091
-0.0308631
-0.0232186
-0.0123511
0.00109883
0.0164778
0.0330464
0.0499275
0.0660773
0.0802839
0.0911947
0.097424
0.0978642
0.0916299
0.0758901
0.0491103
-0.00597263
-0.034272
-0.0498757
-0.0555543
-0.0550957
-0.0495202
-0.0395991
-0.026119
-0.00976298
0.00881699
0.0288949
0.0495874
0.0697915
0.0881486
0.103042
0.112695
0.115545
0.110186
0.0928282
0.0614053
-0.0318627
-0.0638818
-0.0804226
-0.0850129
-0.0824258
-0.074084
-0.0609865
-0.0440423
-0.0239572
-0.00134275
0.0231396
0.048655
0.0740896
0.0979663
0.11839
0.13312
0.139983
0.136812
0.118435
0.0819278
-0.068673
-0.104609
-0.12135
-0.123596
-0.117521
-0.105132
-0.0877239
-0.0663311
-0.0416427
-0.0141613
0.0155998
0.0469473
0.0788499
0.109788
0.137618
0.15958
0.172721
0.173772
0.155515
0.113565
-0.119408
-0.159363
-0.17492
-0.172763
-0.161153
-0.142935
-0.119765
-0.0927826
-0.062583
-0.0294532
0.00636751
0.0444678
0.0840494
0.123697
0.16113
0.19308
0.215662
0.224071
0.208045
0.160627
-0.188634
-0.232247
-0.243944
-0.233953
-0.2137
-0.18716
-0.156378
-0.122507
-0.0859033
-0.0464776
-0.00401985
0.0415334
0.0898367
0.139824
0.189313
0.234684
0.271069
0.291659
0.281737
0.22977
-0.28398
-0.32931
-0.331837
-0.308285
-0.274714
-0.236445
-0.195769
-0.153615
-0.109845
-0.0637503
-0.014443
0.0388584
0.0965492
0.158272
0.222369
0.285283
0.341392
0.38157
0.384909
0.331829
-0.419324
-0.459676
-0.442355
-0.395797
-0.342134
-0.287744
-0.23462
-0.182934
-0.131614
-0.0789896
-0.0232186
0.0374707
0.104549
0.178833
0.259857
0.344966
0.428612
0.499695
0.52967
0.485387
-0.620536
-0.636748
-0.578681
-0.494197
-0.411244
-0.335662
-0.267784
-0.205982
-0.14754
-0.089387
-0.0284301
0.0383442
0.113803
0.200468
0.299971
0.412021
0.533025
0.651771
0.732767
0.722391
-0.935928
-0.878519
-0.741745
-0.597952
-0.474396
-0.372663
-0.288872
-0.217766
-0.153957
-0.0924675
-0.028721
0.041692
0.12326
0.220714
0.338922
0.482151
0.651993
0.841338
1.01527
1.0975
-1.47643
-1.20663
-0.920507
-0.691391
-0.517308
-0.387547
-0.290064
-0.21334
-0.148127
-0.0872189
-0.0245811
0.045454
0.128934
0.233067
0.3671
0.542675
0.771289
1.05931
1.40328
1.73014
-2.53965
-1.63055
-1.04444
-0.710962
-0.495754
-0.352096
-0.254534
-0.183586
-0.126173
-0.0735985
-0.0192725
0.0427834
0.119209
0.218779
0.354809
0.54798
0.826389
1.23658
1.91167
2.92419
-4.36667
-2.04464
-0.973545
-0.563184
-0.357849
-0.24015
-0.170122
-0.123786
-0.0874846
-0.0535137
-0.016658
0.0276571
0.0846039
0.161726
0.272408
0.442095
0.718215
1.2257
2.41103
4.84853
)
;

boundaryField
{
    movingWall
    {
        type            zeroGradient;
    }
    fixedWalls
    {
        type            zeroGradient;
    }
    frontAndBack
    {
        type            empty;
    }
}


// ************************************************************************* //
