/*--------------------------------*- C++ -*----------------------------------*\
  =========                 |
  \\      /  F ield         | OpenFOAM: The Open Source CFD Toolbox
   \\    /   O peration     | Website:  https://openfoam.org
    \\  /    A nd           | Version:  8
     \\/     M anipulation  |
\*---------------------------------------------------------------------------*/
FoamFile
{
    version     2.0;
    format      ascii;
    class       volScalarField;
    location    "7.6";
    object      T;
}
// * * * * * * * * * * * * * * * * * * * * * * * * * * * * * * * * * * * * * //

dimensions      [0 0 0 1 0 0 0];

internalField   nonuniform List<scalar> 
400
(
293.783
295.297
296.746
298.191
299.665
301.132
302.513
303.727
304.71
305.415
305.803
305.839
305.494
304.748
303.598
302.071
300.232
298.188
296.077
294.01
295.403
300.045
304.516
309.008
313.6
318.123
322.283
325.823
328.576
330.437
331.333
331.202
329.992
327.664
324.217
319.712
314.313
308.313
302.095
295.983
297.123
305.049
312.695
320.382
328.176
335.693
342.4
347.917
352.059
354.744
355.919
355.527
353.498
349.753
344.236
336.98
328.188
318.317
308.03
297.913
298.932
310.271
321.216
332.172
343.076
353.253
361.973
368.862
373.85
376.972
378.262
377.7
375.188
370.553
363.589
354.153
342.338
328.679
314.185
299.889
300.804
315.633
329.934
344.105
357.815
370.048
379.988
387.453
392.627
395.762
397.037
396.493
394.001
389.257
381.807
371.159
357.038
339.815
320.862
301.999
302.721
321.069
338.702
355.886
371.876
385.319
395.502
402.637
407.3
410.017
411.131
410.752
408.735
404.657
397.798
387.201
371.932
351.77
328.205
304.283
304.671
326.529
347.385
367.231
384.77
398.401
407.783
413.746
417.326
419.304
420.141
419.994
418.724
415.851
410.471
401.187
386.237
364.275
336.26
306.744
306.649
331.99
355.893
377.888
396.073
408.822
416.499
420.729
422.961
424.101
424.635
424.727
424.262
422.788
419.365
412.332
399.15
376.935
345.087
309.378
308.647
337.385
364.047
387.593
405.482
416.396
421.803
424.159
425.11
425.515
425.793
426.081
426.304
426.112
424.685
420.347
410.048
389.284
354.776
312.198
310.688
342.791
371.944
396.263
412.858
421.248
424.263
424.971
424.924
424.797
424.89
425.295
425.989
426.764
427.035
425.353
418.555
400.798
365.366
315.279
312.755
348.045
379.145
403.568
418.175
423.773
424.659
424.163
423.469
423.029
423.004
423.447
424.371
425.719
427.192
427.756
424.561
410.971
376.755
318.85
314.904
353.331
386.214
409.864
421.744
424.531
423.796
422.591
421.574
421.005
420.923
421.346
422.303
423.847
425.96
428.122
428.192
419.396
388.663
323.434
317.182
358.614
392.228
414.51
423.525
424.031
422.371
420.881
419.773
419.202
419.108
419.498
420.38
421.844
424.089
427.089
429.753
425.826
400.643
329.907
319.655
363.744
398.41
418.546
424.462
423.119
420.973
419.404
418.327
417.802
417.723
418.1
418.912
420.175
422.204
425.305
429.677
430.186
412.147
339.333
322.332
369.648
403.246
420.736
423.992
421.707
419.663
418.269
417.322
416.848
416.781
417.154
417.968
419.053
420.755
423.374
428.482
432.557
422.612
352.512
326.301
374.657
408.462
422.936
423.956
421.261
419.337
417.977
417.048
416.552
416.471
416.763
417.598
418.524
419.989
421.812
426.762
433.154
431.56
369.405
328.242
381.928
411.91
422.938
422.776
420.46
418.939
417.992
417.421
417.098
417.224
417.391
418.168
418.72
420.025
421.01
425.226
432.352
438.66
388.765
336.411
385.83
414.72
423.799
424.316
423.094
422.011
421.04
420.625
419.985
420.058
419.639
420.159
419.917
421.04
421.265
424.873
430.904
443.863
408.447
332.017
391.359
411.589
418.538
420.945
421.017
421.388
420.698
421.119
420.392
421.157
420.484
421.744
421.179
423.295
423.198
427.783
430.922
448.045
426.647
338.4
367.732
383.432
392.557
400.261
405.169
410.749
413.987
418.833
421.021
425.669
426.966
431.8
432.2
437.716
437.128
444.439
442.659
456.171
443.828
)
;

boundaryField
{
    movingWall
    {
        type            fixedValue;
        value           uniform 493;
    }
    fixedWalls
    {
        type            fixedValue;
        value           uniform 293;
    }
    frontAndBack
    {
        type            empty;
    }
}


// ************************************************************************* //
