/*--------------------------------*- C++ -*----------------------------------*\
  =========                 |
  \\      /  F ield         | OpenFOAM: The Open Source CFD Toolbox
   \\    /   O peration     | Website:  https://openfoam.org
    \\  /    A nd           | Version:  8
     \\/     M anipulation  |
\*---------------------------------------------------------------------------*/
FoamFile
{
    version     2.0;
    format      ascii;
    class       volScalarField;
    location    "4.4";
    object      p;
}
// * * * * * * * * * * * * * * * * * * * * * * * * * * * * * * * * * * * * * //

dimensions      [0 2 -2 0 0 0 0];

internalField   nonuniform List<scalar> 
400
(
8.9458e-07
-0.00582845
-0.0129668
-0.0184194
-0.0204371
-0.0182436
-0.011779
-0.00148879
0.0118324
0.0271443
0.0432397
0.0588184
0.0725741
0.083304
0.0900484
0.0922626
0.0900214
0.0842394
0.0768762
0.0710626
0.00577761
-0.000221957
-0.00580807
-0.00954693
-0.0106036
-0.00843753
-0.00297489
0.00546912
0.0162979
0.0287068
0.041745
0.0543813
0.0655819
0.0744054
0.0801158
0.0823113
0.0810727
0.0770503
0.0712695
0.0653132
0.0133314
0.00502974
-0.000999477
-0.00442748
-0.00527747
-0.00326865
0.00159747
0.0090226
0.018497
0.0293443
0.0407606
0.0518649
0.0617639
0.0696318
0.0748025
0.0768735
0.075837
0.0720812
0.0658007
0.0575307
0.0201356
0.00869194
0.00122164
-0.00267292
-0.00372665
-0.00188998
0.00272647
0.00977963
0.0187754
0.02909
0.039987
0.0506492
0.0602282
0.0679113
0.0729986
0.0749969
0.0737611
0.0694513
0.0615981
0.0500976
0.0244982
0.00976907
0.000585533
-0.00399131
-0.00530676
-0.00351197
0.00116999
0.0083297
0.017457
0.027944
0.03908
0.050065
0.0600441
0.0681603
0.0736217
0.075793
0.0743642
0.0692849
0.0595206
0.0445321
0.025174
0.00714598
-0.00380625
-0.00906159
-0.0105167
-0.00850458
-0.00336149
0.00442465
0.0143085
0.0256741
0.0378088
0.0498983
0.0610432
0.0702983
0.0767298
0.0795121
0.0781341
0.0723287
0.0605343
0.0418849
0.0210895
-0.000266462
-0.0129387
-0.0187137
-0.0200343
-0.0174185
-0.011323
-0.00232439
0.00898566
0.0219713
0.0359047
0.0499394
0.0631072
0.0743404
0.082517
0.0865646
0.0857159
0.0794422
0.0656154
0.0430666
0.0111386
-0.0136224
-0.0278793
-0.0338586
-0.034608
-0.030862
-0.0232175
-0.0123498
0.00110015
0.0164791
0.0330477
0.0499287
0.0660784
0.080285
0.0911958
0.0974252
0.0978655
0.0916312
0.0758914
0.0491115
-0.0059715
-0.0342708
-0.0498744
-0.0555529
-0.0550945
-0.0495191
-0.0395981
-0.0261179
-0.00976176
0.00881831
0.0288963
0.0495887
0.0697927
0.0881497
0.103043
0.112696
0.115546
0.110187
0.0928295
0.0614066
-0.0318616
-0.0638806
-0.0804213
-0.0850115
-0.0824245
-0.0740828
-0.0609854
-0.0440412
-0.0239561
-0.00134155
0.0231409
0.0486563
0.0740909
0.0979675
0.118391
0.133121
0.139984
0.136813
0.118436
0.0819291
-0.0686719
-0.104608
-0.121349
-0.123594
-0.11752
-0.105131
-0.0877227
-0.06633
-0.0416416
-0.0141602
0.015601
0.0469486
0.0788512
0.109789
0.137619
0.159581
0.172722
0.173773
0.155516
0.113566
-0.119407
-0.159361
-0.174919
-0.172761
-0.161152
-0.142933
-0.119763
-0.0927814
-0.0625819
-0.0294521
0.00636861
0.044469
0.0840507
0.123699
0.161132
0.193082
0.215664
0.224073
0.208046
0.160628
-0.188633
-0.232246
-0.243943
-0.233952
-0.213698
-0.187158
-0.156377
-0.122505
-0.0859021
-0.0464764
-0.00401875
0.0415345
0.0898379
0.139825
0.189315
0.234685
0.27107
0.29166
0.281739
0.229772
-0.283979
-0.329309
-0.331836
-0.308284
-0.274712
-0.236444
-0.195768
-0.153614
-0.109844
-0.063749
-0.0144418
0.0388595
0.0965504
0.158273
0.22237
0.285284
0.341393
0.381571
0.38491
0.33183
-0.419322
-0.459675
-0.442354
-0.395796
-0.342132
-0.287743
-0.234619
-0.182933
-0.131613
-0.0789883
-0.0232174
0.0374719
0.10455
0.178834
0.259858
0.344967
0.428613
0.499697
0.529672
0.485388
-0.620535
-0.636747
-0.57868
-0.494196
-0.411243
-0.335661
-0.267783
-0.20598
-0.147539
-0.0893858
-0.0284289
0.0383455
0.113804
0.200469
0.299972
0.412022
0.533027
0.651772
0.732769
0.722393
-0.935927
-0.878518
-0.741744
-0.597951
-0.474395
-0.372661
-0.288871
-0.217765
-0.153956
-0.0924663
-0.0287197
0.0416932
0.123261
0.220716
0.338923
0.482152
0.651994
0.841339
1.01527
1.0975
-1.47643
-1.20663
-0.920505
-0.69139
-0.517307
-0.387546
-0.290063
-0.213339
-0.148126
-0.0872177
-0.0245799
0.0454552
0.128935
0.233069
0.367101
0.542676
0.771291
1.05932
1.40328
1.73014
-2.53965
-1.63055
-1.04444
-0.710961
-0.495752
-0.352095
-0.254533
-0.183585
-0.126171
-0.0735973
-0.0192713
0.0427846
0.11921
0.21878
0.35481
0.547981
0.826391
1.23658
1.91167
2.92419
-4.36667
-2.04464
-0.973544
-0.563183
-0.357848
-0.240148
-0.170121
-0.123785
-0.0874833
-0.0535125
-0.0166568
0.0276583
0.0846051
0.161727
0.272409
0.442097
0.718216
1.22571
2.41103
4.84853
)
;

boundaryField
{
    movingWall
    {
        type            zeroGradient;
    }
    fixedWalls
    {
        type            zeroGradient;
    }
    frontAndBack
    {
        type            empty;
    }
}


// ************************************************************************* //
