/*--------------------------------*- C++ -*----------------------------------*\
  =========                 |
  \\      /  F ield         | OpenFOAM: The Open Source CFD Toolbox
   \\    /   O peration     | Website:  https://openfoam.org
    \\  /    A nd           | Version:  8
     \\/     M anipulation  |
\*---------------------------------------------------------------------------*/
FoamFile
{
    version     2.0;
    format      ascii;
    class       volScalarField;
    location    "4.4";
    object      T;
}
// * * * * * * * * * * * * * * * * * * * * * * * * * * * * * * * * * * * * * //

dimensions      [0 0 0 1 0 0 0];

internalField   nonuniform List<scalar> 
400
(
293.708
295.082
296.414
297.76
299.148
300.538
301.853
303.014
303.961
304.649
305.039
305.097
304.793
304.106
303.032
301.594
299.854
297.918
295.916
293.957
295.175
299.395
303.512
307.71
312.043
316.336
320.303
323.697
326.357
328.184
329.103
329.052
327.974
325.827
322.603
318.356
313.241
307.543
301.634
295.831
296.739
303.962
311.025
318.229
325.601
332.748
339.151
344.446
348.459
351.107
352.339
352.095
350.298
346.859
341.71
334.869
326.525
317.123
307.314
297.677
298.391
308.751
318.891
329.183
339.512
349.189
357.504
364.102
368.922
372.003
373.383
373.04
370.866
366.671
360.227
351.367
340.16
327.12
313.252
299.581
300.108
313.688
326.967
340.299
353.281
364.88
374.301
381.38
386.318
389.383
390.765
390.505
388.465
384.314
377.566
367.683
354.35
337.911
319.728
301.626
301.871
318.705
335.103
351.27
366.366
379.013
388.518
395.121
399.433
402.016
403.236
403.209
401.775
398.476
392.541
382.945
368.689
349.504
326.869
303.848
303.665
323.748
343.154
361.794
378.242
390.865
399.347
404.572
407.644
409.398
410.331
410.609
410.075
408.201
404.014
396.022
382.365
361.617
334.714
306.246
305.487
328.794
351.028
371.598
388.449
399.912
406.403
409.64
411.172
411.98
412.594
413.191
413.632
413.411
411.497
406.104
394.554
373.843
343.319
308.816
307.32
333.747
358.508
380.392
396.652
405.937
409.814
410.881
410.917
410.867
411.203
412.077
413.392
414.732
415.169
412.874
404.612
385.702
352.769
311.571
309.2
338.747
365.741
388.091
402.69
409.045
410.143
409.244
408.047
407.33
407.451
408.523
410.498
413.1
415.62
416.431
412.139
396.656
363.096
314.583
311.067
343.455
372.152
394.306
406.516
409.635
408.195
405.76
403.677
402.503
402.47
403.65
406.04
409.508
413.629
417.17
417.004
406.178
374.189
318.079
313.063
348.406
378.511
399.468
408.467
408.294
404.825
401.363
398.724
397.283
397.146
398.363
400.945
404.881
410.027
415.658
419.32
413.846
385.756
322.576
315.041
352.876
383.541
402.781
408.468
405.579
400.828
396.806
393.881
392.318
392.122
393.334
395.956
400.026
405.635
412.566
419.39
419.396
397.339
328.939
317.429
357.856
388.954
405.539
407.626
402.485
396.971
392.685
389.674
388.083
387.86
389.049
391.637
395.616
401.223
408.617
417.668
422.743
408.374
338.211
319.502
362.45
392.53
406.169
405.293
399.031
393.56
389.457
386.602
385.072
384.834
385.957
388.469
392.213
397.504
404.581
414.74
423.972
418.286
351.17
323.67
367.587
396.975
407.168
403.858
397.227
392.063
388.22
385.576
384.134
383.881
384.806
387.11
390.411
395.175
401.289
411.364
423.341
426.591
367.755
324.27
372.837
398.877
405.794
401.687
396.032
391.905
389.038
387.18
386.168
386.177
386.833
388.717
391.118
395.063
399.705
408.605
421.365
432.979
386.709
333.266
377.39
401.608
406.91
404.367
400.791
397.974
395.787
394.565
393.517
393.504
393.393
394.57
395.499
398.313
401.086
408.217
419.196
437.526
405.914
326.792
380.325
397.866
403.046
404.163
403.349
403.072
401.994
402.144
401.355
402.129
401.688
403.255
403.31
406.199
407.446
413.804
420.064
441.559
423.685
336.159
362.989
377.567
386.117
393.441
398.163
403.586
406.791
411.57
413.811
418.442
419.87
424.735
425.368
430.996
430.84
438.459
437.579
451.793
440.894
)
;

boundaryField
{
    movingWall
    {
        type            fixedValue;
        value           uniform 493;
    }
    fixedWalls
    {
        type            fixedValue;
        value           uniform 293;
    }
    frontAndBack
    {
        type            empty;
    }
}


// ************************************************************************* //
