/*--------------------------------*- C++ -*----------------------------------*\
  =========                 |
  \\      /  F ield         | OpenFOAM: The Open Source CFD Toolbox
   \\    /   O peration     | Website:  https://openfoam.org
    \\  /    A nd           | Version:  8
     \\/     M anipulation  |
\*---------------------------------------------------------------------------*/
FoamFile
{
    version     2.0;
    format      ascii;
    class       volScalarField;
    location    "1.2";
    object      T;
}
// * * * * * * * * * * * * * * * * * * * * * * * * * * * * * * * * * * * * * //

dimensions      [0 0 0 1 0 0 0];

internalField   nonuniform List<scalar> 
400
(
293.022
293.081
293.212
293.482
293.96
294.67
295.554
296.495
297.371
298.095
298.612
298.886
298.89
298.611
298.053
297.248
296.268
295.226
294.244
293.391
293.077
293.306
293.809
294.852
296.674
299.293
302.409
305.546
308.308
310.473
311.932
312.62
312.488
311.502
309.668
307.061
303.876
300.446
297.173
294.307
293.177
293.709
294.879
297.263
301.276
306.735
312.795
318.466
323.151
326.659
328.943
329.964
329.658
327.941
324.747
320.105
314.25
307.722
301.302
295.594
293.352
294.398
296.676
301.18
308.357
317.397
326.516
334.242
340.138
344.343
347.016
348.216
347.874
345.805
341.75
335.501
327.11
317.154
306.826
297.327
293.628
295.461
299.379
306.793
317.774
330.229
341.22
349.327
354.938
358.77
361.237
362.514
362.51
360.885
357.083
350.456
340.562
327.675
313.258
299.372
294.025
296.953
303.03
313.884
328.517
342.947
353.507
359.96
364.016
366.786
368.81
370.315
371.159
370.856
368.536
363.011
353.078
338.27
320.02
301.53
294.551
298.864
307.476
321.84
339.054
353.162
361.05
364.735
366.891
368.489
370.133
372.043
374.082
375.692
375.801
372.705
364.276
348.793
327.062
303.729
295.217
301.228
312.596
329.924
347.957
359.493
363.506
364.391
364.725
365.14
366.396
368.668
371.933
375.651
378.733
379.126
373.791
359.276
334.709
306.03
295.95
303.638
317.633
337.233
354.324
361.714
361.696
360.145
358.671
357.912
358.719
361.211
365.509
371.177
377.295
381.754
380.856
369.268
343.165
308.505
296.919
306.901
323.362
343.671
357.85
360.29
356.733
353.103
349.92
348.192
348.557
351.144
356.15
363.354
372.123
380.631
384.941
378.097
352.41
311.231
297.655
308.932
327.424
347.902
358.382
356.055
349.714
344.354
339.809
337.433
337.398
339.956
345.276
353.446
364.187
376.236
385.914
385.188
362.274
314.414
299.068
313.41
333.113
351.621
356.95
350.009
341.633
335.003
329.615
326.896
326.535
328.943
334.197
342.69
354.551
369.254
383.901
390.086
372.43
318.534
299.433
313.953
335.125
351.884
352.659
342.653
333.426
326.112
320.43
317.618
317.042
319.199
324.1
332.305
344.366
360.562
379.269
392.506
382.386
324.396
301.917
320.338
340.535
353.194
348.709
336.112
326.324
318.651
313.128
310.418
309.748
311.583
315.962
323.418
334.824
351.195
372.609
392.363
391.547
332.962
300.716
318.482
339.9
349.745
341.913
328.914
320.035
313.151
308.426
306.031
305.353
306.797
310.571
317.017
327.132
342.363
364.756
389.793
399.31
344.911
306.91
327.397
345.341
350.177
339.145
326.271
318.195
311.955
307.669
305.356
304.616
305.6
308.702
314.005
322.504
335.506
356.911
385.21
405.184
360.095
300.291
322.69
341.217
344.011
333.36
322.861
316.752
312.541
309.74
308.229
308.028
308.915
311.488
315.515
322.301
332.43
350.947
379.549
408.957
377.244
315.041
334.265
348.128
348.681
340.452
332.34
326.892
323.147
320.905
319.391
319.165
319.374
321.155
323.56
328.623
335.773
350.214
375.089
411.134
394.391
297.537
322.645
335.343
339.542
339.569
337.938
337.056
335.908
336.018
335.681
336.823
337.33
339.749
341.53
346.25
351.09
362.184
378.336
414.52
410.319
323.287
336.537
346.589
353.603
360.202
364.926
370.341
374.012
379.004
381.945
386.874
389.21
394.438
396.284
402.431
404.116
412.795
415.433
432.01
427.443
)
;

boundaryField
{
    movingWall
    {
        type            fixedValue;
        value           uniform 493;
    }
    fixedWalls
    {
        type            fixedValue;
        value           uniform 293;
    }
    frontAndBack
    {
        type            empty;
    }
}


// ************************************************************************* //
