/*--------------------------------*- C++ -*----------------------------------*\
  =========                 |
  \\      /  F ield         | OpenFOAM: The Open Source CFD Toolbox
   \\    /   O peration     | Website:  https://openfoam.org
    \\  /    A nd           | Version:  8
     \\/     M anipulation  |
\*---------------------------------------------------------------------------*/
FoamFile
{
    version     2.0;
    format      ascii;
    class       volScalarField;
    location    "9.3";
    object      p;
}
// * * * * * * * * * * * * * * * * * * * * * * * * * * * * * * * * * * * * * //

dimensions      [0 2 -2 0 0 0 0];

internalField   nonuniform List<scalar> 
400
(
1.34451e-07
-0.00582975
-0.0129683
-0.0184208
-0.0204386
-0.018245
-0.0117804
-0.00149019
0.011831
0.0271428
0.0432382
0.0588169
0.0725726
0.0833026
0.090047
0.0922612
0.09002
0.084238
0.0768747
0.0710611
0.00577632
-0.000223316
-0.00580946
-0.00954836
-0.010605
-0.008439
-0.00297634
0.00546771
0.0162965
0.0287054
0.0417436
0.0543798
0.0655804
0.074404
0.0801143
0.0823098
0.0810713
0.0770488
0.0712681
0.0653117
0.01333
0.00502835
-0.00100086
-0.00442888
-0.00527892
-0.00327013
0.00159598
0.00902114
0.0184956
0.0293429
0.0407592
0.0518635
0.0617624
0.0696303
0.074801
0.076872
0.0758356
0.0720798
0.0657993
0.0575293
0.0201342
0.00869051
0.00122024
-0.00267431
-0.00372806
-0.00189143
0.00272497
0.00977814
0.0187739
0.0290886
0.0399857
0.0506478
0.0602268
0.0679099
0.0729971
0.0749954
0.0737596
0.0694499
0.0615967
0.0500962
0.0244967
0.00976761
0.000584104
-0.00399271
-0.00530813
-0.00351337
0.00116853
0.00832819
0.0174555
0.0279426
0.0390786
0.0500636
0.0600427
0.0681589
0.0736202
0.0757915
0.0743627
0.0692835
0.0595192
0.0445307
0.0251726
0.0071445
-0.00380772
-0.00906302
-0.010518
-0.00850595
-0.0033629
0.00442318
0.014307
0.0256725
0.0378073
0.0498969
0.0610418
0.0702969
0.0767284
0.0795106
0.0781326
0.0723272
0.0605328
0.0418835
0.0210881
-0.000267931
-0.0129402
-0.0187152
-0.0200357
-0.0174199
-0.0113244
-0.0023258
0.00898419
0.0219698
0.0359032
0.0499379
0.0631058
0.074339
0.0825156
0.0865632
0.0857144
0.0794407
0.065614
0.0430652
0.0111373
-0.0136238
-0.0278808
-0.0338601
-0.0346094
-0.0308634
-0.0232188
-0.0123512
0.00109874
0.0164777
0.0330462
0.0499272
0.066077
0.0802835
0.0911944
0.0974238
0.097864
0.0916298
0.0758899
0.0491101
-0.0059729
-0.0342722
-0.0498758
-0.0555544
-0.0550961
-0.0495206
-0.0395995
-0.0261193
-0.00976313
0.0088169
0.0288948
0.0495872
0.0697912
0.0881482
0.103041
0.112695
0.115544
0.110186
0.092828
0.0614051
-0.0318631
-0.063882
-0.0804227
-0.085013
-0.082426
-0.0740843
-0.0609869
-0.0440426
-0.0239575
-0.00134292
0.0231395
0.0486549
0.0740894
0.097966
0.11839
0.13312
0.139982
0.136812
0.118435
0.0819276
-0.0686734
-0.104609
-0.12135
-0.123596
-0.117521
-0.105133
-0.0877242
-0.0663315
-0.041643
-0.0141616
0.0155996
0.0469472
0.0788497
0.109787
0.137618
0.15958
0.172721
0.173772
0.155515
0.113565
-0.119408
-0.159363
-0.174921
-0.172763
-0.161154
-0.142935
-0.119765
-0.0927829
-0.0625834
-0.0294536
0.00636721
0.0444676
0.0840492
0.123697
0.16113
0.19308
0.215662
0.224071
0.208045
0.160627
-0.188634
-0.232248
-0.243944
-0.233953
-0.2137
-0.18716
-0.156378
-0.122507
-0.0859036
-0.0464779
-0.00402019
0.0415331
0.0898365
0.139824
0.189313
0.234684
0.271069
0.291659
0.281737
0.22977
-0.28398
-0.32931
-0.331837
-0.308285
-0.274714
-0.236445
-0.19577
-0.153615
-0.109845
-0.0637505
-0.0144433
0.038858
0.0965489
0.158271
0.222369
0.285283
0.341392
0.38157
0.384909
0.331829
-0.419324
-0.459676
-0.442355
-0.395797
-0.342134
-0.287744
-0.234621
-0.182935
-0.131614
-0.0789898
-0.0232189
0.0374704
0.104548
0.178833
0.259856
0.344965
0.428611
0.499695
0.52967
0.485387
-0.620536
-0.636748
-0.578681
-0.494197
-0.411245
-0.335663
-0.267785
-0.205982
-0.147541
-0.0893872
-0.0284303
0.038344
0.113802
0.200467
0.299971
0.412021
0.533025
0.651771
0.732767
0.722391
-0.935928
-0.878519
-0.741745
-0.597952
-0.474397
-0.372663
-0.288872
-0.217766
-0.153957
-0.0924677
-0.0287212
0.0416918
0.12326
0.220714
0.338922
0.482151
0.651993
0.841338
1.01527
1.0975
-1.47643
-1.20663
-0.920507
-0.691391
-0.517308
-0.387547
-0.290065
-0.213341
-0.148127
-0.0872192
-0.0245813
0.0454538
0.128934
0.233067
0.367099
0.542674
0.771289
1.05931
1.40328
1.73014
-2.53965
-1.63055
-1.04444
-0.710962
-0.495754
-0.352096
-0.254534
-0.183587
-0.126173
-0.0735988
-0.0192727
0.0427831
0.119209
0.218779
0.354808
0.54798
0.826389
1.23658
1.91167
2.92419
-4.36667
-2.04464
-0.973546
-0.563184
-0.357849
-0.24015
-0.170123
-0.123786
-0.0874848
-0.0535139
-0.0166582
0.0276568
0.0846036
0.161726
0.272407
0.442095
0.718215
1.2257
2.41103
4.84853
)
;

boundaryField
{
    movingWall
    {
        type            zeroGradient;
    }
    fixedWalls
    {
        type            zeroGradient;
    }
    frontAndBack
    {
        type            empty;
    }
}


// ************************************************************************* //
