/*--------------------------------*- C++ -*----------------------------------*\
  =========                 |
  \\      /  F ield         | OpenFOAM: The Open Source CFD Toolbox
   \\    /   O peration     | Website:  https://openfoam.org
    \\  /    A nd           | Version:  8
     \\/     M anipulation  |
\*---------------------------------------------------------------------------*/
FoamFile
{
    version     2.0;
    format      ascii;
    class       volScalarField;
    location    "0.1";
    object      T;
}
// * * * * * * * * * * * * * * * * * * * * * * * * * * * * * * * * * * * * * //

dimensions      [0 0 0 1 0 0 0];

internalField   nonuniform List<scalar> 
400
(
290.834
292.072
292.871
293.043
293.067
293.057
293.047
293.053
293.067
293.06
293.051
293.068
293.074
293.063
293.052
293.034
292.998
292.968
292.972
292.992
292.07
292.67
293.029
293.132
293.134
293.111
293.104
293.111
293.125
293.114
293.096
293.126
293.149
293.13
293.085
293.031
292.989
292.983
292.997
292.976
292.864
293.014
293.112
293.13
293.1
293.082
293.087
293.085
293.083
293.075
293.081
293.116
293.132
293.133
293.128
293.109
293.083
293.059
293.014
292.984
293.024
293.104
293.113
293.069
293.052
293.052
293.041
293.025
293.033
293.036
293.047
293.082
293.108
293.137
293.16
293.167
293.16
293.132
293.055
293.023
293.039
293.1
293.077
293.036
293.036
293.035
293.014
292.996
293.018
293.025
293.026
293.045
293.077
293.13
293.177
293.203
293.202
293.162
293.087
293.048
293.039
293.082
293.066
293.051
293.053
293.04
293.015
292.992
293.022
293.043
293.045
293.042
293.055
293.092
293.131
293.155
293.158
293.128
293.093
293.04
293.042
293.083
293.088
293.085
293.073
293.049
293.025
292.999
293.046
293.103
293.115
293.072
293.036
293.028
293.039
293.061
293.082
293.089
293.095
293.032
293.053
293.109
293.126
293.113
293.083
293.053
293.04
293.018
293.087
293.173
293.168
293.074
292.999
292.967
292.972
293.003
293.043
293.072
293.089
293.042
293.065
293.135
293.146
293.119
293.078
293.051
293.053
293.031
293.094
293.168
293.12
293.006
292.95
292.949
292.984
293.036
293.083
293.095
293.079
293.039
293.064
293.136
293.136
293.101
293.06
293.038
293.05
293.004
293.028
293.077
293.015
292.947
292.959
293.014
293.097
293.207
293.299
293.282
293.161
293.038
293.048
293.103
293.091
293.058
293.03
293.012
293.021
292.961
292.972
293.024
292.978
292.971
293.029
293.119
293.286
293.575
293.875
293.883
293.462
293.077
293.032
293.108
293.098
293.056
293.016
292.963
293.011
293.005
293.011
293.043
292.999
293.028
293.102
293.247
293.617
294.355
295.271
295.585
294.479
293.162
292.998
292.852
292.893
292.931
292.934
292.967
293.103
293.101
293.038
293.032
293.017
293.084
293.187
293.433
294.152
295.71
298.008
299.57
297.651
293.507
293.15
293.76
293.416
293.137
293.057
292.998
293.063
293.033
292.978
292.997
293.034
293.12
293.239
293.58
294.662
297.273
301.865
306.521
305.051
294.851
292.477
291.085
292.108
292.647
292.907
292.946
293.002
292.952
292.923
292.945
292.997
293.09
293.236
293.63
294.909
298.37
305.659
315.499
318.011
299.103
295.175
297.05
294.901
293.871
293.417
293.167
293.156
293.057
292.99
292.958
292.968
293.046
293.235
293.682
294.995
298.719
308.019
323.896
335.17
309.987
287.311
286.875
289.781
291.076
291.992
292.453
292.849
292.989
293.001
292.963
292.951
293.03
293.335
293.997
295.576
299.222
309.035
329.349
352.294
330.466
303.718
301.428
298.543
296.736
295.642
294.697
294.038
293.574
293.308
293.22
293.396
293.778
294.626
295.864
298.378
302.513
311.843
332.736
365.708
356.691
278.469
281.023
283.274
284.82
286.382
287.986
289.78
291.633
293.771
295.862
298.388
300.745
303.824
306.775
311.127
316.305
325.772
342.12
377.621
380.42
315.454
319.752
325.224
330.705
336.252
341.436
346.744
351.403
356.406
360.396
365.136
368.369
372.999
375.492
380.464
382.565
389.368
392.483
406.474
403.547
)
;

boundaryField
{
    movingWall
    {
        type            fixedValue;
        value           uniform 493;
    }
    fixedWalls
    {
        type            fixedValue;
        value           uniform 293;
    }
    frontAndBack
    {
        type            empty;
    }
}


// ************************************************************************* //
