/*--------------------------------*- C++ -*----------------------------------*\
  =========                 |
  \\      /  F ield         | OpenFOAM: The Open Source CFD Toolbox
   \\    /   O peration     | Website:  https://openfoam.org
    \\  /    A nd           | Version:  8
     \\/     M anipulation  |
\*---------------------------------------------------------------------------*/
FoamFile
{
    version     2.0;
    format      ascii;
    class       volScalarField;
    location    "2.4";
    object      p;
}
// * * * * * * * * * * * * * * * * * * * * * * * * * * * * * * * * * * * * * //

dimensions      [0 2 -2 0 0 0 0];

internalField   nonuniform List<scalar> 
400
(
1.96839e-06
-0.00582665
-0.0129649
-0.0184174
-0.020435
-0.0182415
-0.011777
-0.00148678
0.0118343
0.0271463
0.0432417
0.0588205
0.0725763
0.0833061
0.0900505
0.0922646
0.0900234
0.0842414
0.0768781
0.0710646
0.00577945
-0.000220019
-0.00580611
-0.00954497
-0.0106016
-0.00843547
-0.00297279
0.00547121
0.0162999
0.0287088
0.041747
0.0543833
0.0655839
0.0744075
0.0801179
0.0823134
0.0810748
0.0770523
0.0712715
0.0653152
0.0133334
0.00503175
-0.000997494
-0.00442553
-0.00527552
-0.00326665
0.00159954
0.00902472
0.0184992
0.0293464
0.0407626
0.0518669
0.0617659
0.0696338
0.0748045
0.0768756
0.0758391
0.0720833
0.0658028
0.0575327
0.0201377
0.00869399
0.00122368
-0.00267093
-0.00372471
-0.00188804
0.00272847
0.00978172
0.0187775
0.0290921
0.0399891
0.0506512
0.0602302
0.0679133
0.0730006
0.0749989
0.0737632
0.0694534
0.0616002
0.0500996
0.0245002
0.00977113
0.000587622
-0.00398925
-0.00530476
-0.00351003
0.00117193
0.0083317
0.0174591
0.0279462
0.0390821
0.0500671
0.0600461
0.0681623
0.0736236
0.075795
0.0743663
0.069287
0.0595227
0.0445341
0.025176
0.00714801
-0.00380416
-0.00905947
-0.0105146
-0.00850259
-0.00335957
0.00442658
0.0143105
0.0256761
0.0378109
0.0499004
0.0610453
0.0703003
0.0767318
0.0795141
0.0781361
0.0723307
0.0605364
0.041887
0.0210915
-0.00026448
-0.0129367
-0.0187116
-0.0200322
-0.0174164
-0.011321
-0.00232247
0.00898758
0.0219733
0.0359068
0.0499415
0.0631093
0.0743424
0.082519
0.0865666
0.0857178
0.0794442
0.0656175
0.0430687
0.0111407
-0.0136204
-0.0278773
-0.0338565
-0.0346058
-0.0308599
-0.0232154
-0.0123479
0.00110207
0.0164811
0.0330497
0.0499308
0.0660806
0.0802871
0.0911979
0.0974272
0.0978674
0.0916332
0.0758934
0.0491136
-0.00596942
-0.0342688
-0.0498724
-0.055551
-0.0550925
-0.0495169
-0.0395959
-0.0261159
-0.00975978
0.00882023
0.0288982
0.0495907
0.0697947
0.0881518
0.103045
0.112698
0.115548
0.110189
0.0928315
0.0614086
-0.0318595
-0.0638785
-0.0804194
-0.0850096
-0.0824225
-0.0740807
-0.0609833
-0.0440391
-0.0239541
-0.00133955
0.0231429
0.0486583
0.0740929
0.0979696
0.118393
0.133123
0.139986
0.136815
0.118438
0.0819311
-0.0686698
-0.104606
-0.121347
-0.123593
-0.117518
-0.105129
-0.0877206
-0.0663279
-0.0416395
-0.0141581
0.015603
0.0469506
0.0788531
0.109791
0.137621
0.159583
0.172724
0.173776
0.155518
0.113568
-0.119405
-0.159359
-0.174917
-0.172759
-0.16115
-0.142931
-0.119761
-0.0927793
-0.0625798
-0.02945
0.00637071
0.044471
0.0840526
0.123701
0.161134
0.193084
0.215666
0.224075
0.208048
0.16063
-0.188631
-0.232244
-0.243941
-0.23395
-0.213696
-0.187157
-0.156375
-0.122503
-0.0859001
-0.0464743
-0.00401662
0.0415366
0.0898399
0.139827
0.189317
0.234687
0.271072
0.291662
0.281741
0.229774
-0.283977
-0.329307
-0.331833
-0.308282
-0.27471
-0.236442
-0.195766
-0.153612
-0.109842
-0.063747
-0.0144397
0.0388616
0.0965524
0.158275
0.222372
0.285286
0.341395
0.381573
0.384912
0.331832
-0.41932
-0.459673
-0.442352
-0.395793
-0.34213
-0.287741
-0.234617
-0.182931
-0.131611
-0.0789863
-0.0232154
0.037474
0.104552
0.178836
0.25986
0.344969
0.428615
0.499699
0.529674
0.48539
-0.620533
-0.636745
-0.578678
-0.494194
-0.411241
-0.335659
-0.267781
-0.205978
-0.147537
-0.0893838
-0.0284269
0.0383475
0.113806
0.200471
0.299974
0.412024
0.533029
0.651774
0.732771
0.722395
-0.935924
-0.878516
-0.741742
-0.597949
-0.474393
-0.372659
-0.288869
-0.217763
-0.153954
-0.0924643
-0.0287177
0.0416952
0.123263
0.220718
0.338925
0.482154
0.651996
0.841341
1.01527
1.0975
-1.47642
-1.20663
-0.920503
-0.691388
-0.517305
-0.387544
-0.290061
-0.213337
-0.148124
-0.0872157
-0.0245778
0.0454572
0.128937
0.233071
0.367103
0.542678
0.771293
1.05932
1.40329
1.73014
-2.53965
-1.63055
-1.04444
-0.710959
-0.49575
-0.352093
-0.254531
-0.183583
-0.126169
-0.0735952
-0.0192692
0.0427866
0.119212
0.218782
0.354812
0.547983
0.826393
1.23658
1.91168
2.92419
-4.36666
-2.04463
-0.973542
-0.56318
-0.357846
-0.240146
-0.170119
-0.123783
-0.0874814
-0.0535104
-0.0166547
0.0276604
0.0846071
0.161729
0.272411
0.442099
0.718219
1.22571
2.41103
4.84853
)
;

boundaryField
{
    movingWall
    {
        type            zeroGradient;
    }
    fixedWalls
    {
        type            zeroGradient;
    }
    frontAndBack
    {
        type            empty;
    }
}


// ************************************************************************* //
