/*--------------------------------*- C++ -*----------------------------------*\
  =========                 |
  \\      /  F ield         | OpenFOAM: The Open Source CFD Toolbox
   \\    /   O peration     | Website:  https://openfoam.org
    \\  /    A nd           | Version:  8
     \\/     M anipulation  |
\*---------------------------------------------------------------------------*/
FoamFile
{
    version     2.0;
    format      ascii;
    class       volScalarField;
    location    "1.6";
    object      T;
}
// * * * * * * * * * * * * * * * * * * * * * * * * * * * * * * * * * * * * * //

dimensions      [0 0 0 1 0 0 0];

internalField   nonuniform List<scalar> 
400
(
293.138
293.466
293.968
294.729
295.751
296.932
298.128
299.216
300.128
300.823
301.273
301.451
301.331
300.896
300.143
299.095
297.813
296.4
294.981
293.641
293.458
294.564
296.267
298.849
302.258
306.081
309.8
313.053
315.675
317.595
318.76
319.117
318.614
317.206
314.882
311.692
307.795
303.478
299.112
294.976
293.897
296.054
299.368
304.298
310.572
317.272
323.467
328.665
332.734
335.641
337.356
337.827
336.972
334.691
330.9
325.599
318.973
311.476
303.787
296.474
294.489
298.031
303.406
311.168
320.56
329.982
338.167
344.705
349.644
353.09
355.115
355.715
354.779
352.099
347.409
340.496
331.391
320.605
309.184
298.191
295.241
300.488
308.304
319.159
331.506
342.958
352.135
358.978
363.882
367.212
369.235
370.032
369.469
367.188
362.636
355.186
344.428
330.655
315.249
300.107
296.139
303.362
313.856
327.758
342.426
354.736
363.556
369.48
373.384
375.979
377.749
378.856
379.151
378.126
374.918
368.358
357.287
341.314
321.898
302.185
297.161
306.548
319.784
336.381
352.353
364.08
371.168
375.109
377.309
378.798
380.193
381.702
383.176
384.032
383.177
378.929
369.184
352.303
329.149
304.413
298.292
310.006
325.909
344.514
360.499
370.207
374.461
375.772
375.979
376.273
377.269
379.195
381.922
384.9
386.968
386.117
379.327
363.258
337.09
306.796
299.465
313.42
331.705
351.619
366.354
372.834
373.62
372.164
370.474
369.685
370.313
372.584
376.42
381.399
386.474
389.575
387.038
373.687
345.812
309.354
300.786
317.301
337.644
357.611
369.682
372.116
369.354
365.419
362.163
360.499
360.806
363.294
367.953
374.557
382.319
389.39
391.877
383.013
355.329
312.157
301.941
320.262
342.212
361.72
370.406
368.577
362.649
356.78
352.385
350.088
350.124
352.675
357.809
365.515
375.369
385.976
393.684
390.673
365.506
315.421
303.549
324.785
347.585
364.94
369.081
362.977
354.571
347.427
342.328
339.639
339.457
341.931
347.196
355.429
366.611
379.973
392.567
396.209
376.022
319.64
304.448
326.54
350.183
365.442
365.358
355.998
346.161
338.394
332.993
330.13
329.783
332.08
337.193
345.418
357.105
372.187
388.863
399.33
386.391
325.637
306.865
332.243
354.905
366.199
361.287
349.167
338.53
330.583
325.213
322.349
321.89
323.958
328.74
336.538
347.961
363.576
383.12
399.946
396.019
334.396
306.676
332.279
355.137
363.313
355.113
342.157
332.047
324.689
319.757
317.058
316.533
318.336
322.697
329.792
340.345
355.277
376.115
398.171
404.304
346.622
312.165
339.656
359.448
362.923
351.758
338.68
329.237
322.426
317.894
315.375
314.813
316.284
320.124
326.274
335.534
348.682
368.975
394.385
410.754
362.186
307.709
337.805
356.768
357.827
346.911
336.063
328.589
323.463
320.203
318.485
318.382
319.631
322.82
327.594
335.159
345.64
363.483
389.443
415.13
379.818
320.593
346.799
361.708
361.039
352.806
344.995
339.357
335.342
332.943
331.352
331.198
331.555
333.627
336.329
341.732
348.927
362.861
385.437
417.846
397.504
306.345
339.598
352.538
355.658
355.029
353.034
351.9
350.471
350.385
349.801
350.793
351.07
353.361
354.872
359.392
363.696
374.077
388.291
421.403
413.913
327.191
344.489
355.722
362.981
369.601
374.174
379.465
382.9
387.741
390.413
395.194
397.229
402.318
403.81
409.814
411.021
419.473
421.258
437.339
431.099
)
;

boundaryField
{
    movingWall
    {
        type            fixedValue;
        value           uniform 493;
    }
    fixedWalls
    {
        type            fixedValue;
        value           uniform 293;
    }
    frontAndBack
    {
        type            empty;
    }
}


// ************************************************************************* //
