/*--------------------------------*- C++ -*----------------------------------*\
  =========                 |
  \\      /  F ield         | OpenFOAM: The Open Source CFD Toolbox
   \\    /   O peration     | Website:  https://openfoam.org
    \\  /    A nd           | Version:  8
     \\/     M anipulation  |
\*---------------------------------------------------------------------------*/
FoamFile
{
    version     2.0;
    format      ascii;
    class       volScalarField;
    location    "2.9";
    object      p;
}
// * * * * * * * * * * * * * * * * * * * * * * * * * * * * * * * * * * * * * //

dimensions      [0 2 -2 0 0 0 0];

internalField   nonuniform List<scalar> 
400
(
1.617e-06
-0.00582725
-0.0129655
-0.018418
-0.0204357
-0.0182421
-0.0117776
-0.0014874
0.0118337
0.0271456
0.043241
0.0588198
0.0725756
0.0833055
0.0900499
0.092264
0.0900227
0.0842407
0.0768774
0.0710638
0.00577885
-0.000220641
-0.00580675
-0.00954564
-0.0106023
-0.00843616
-0.00297346
0.00547058
0.0162993
0.0287082
0.0417463
0.0543826
0.0655832
0.0744068
0.0801172
0.0823127
0.0810742
0.0770516
0.0712708
0.0653145
0.0133328
0.00503111
-0.000998118
-0.00442617
-0.0052762
-0.00326736
0.00159883
0.00902404
0.0184985
0.0293458
0.0407619
0.0518662
0.0617652
0.0696331
0.0748038
0.0768749
0.0758385
0.0720827
0.0658021
0.057532
0.020137
0.00869333
0.00122305
-0.00267155
-0.00372535
-0.00188873
0.00272775
0.009781
0.0187768
0.0290915
0.0399885
0.0506506
0.0602295
0.0679126
0.0729999
0.0749982
0.0737625
0.0694528
0.0615996
0.050099
0.0244995
0.00977044
0.000586966
-0.00398987
-0.00530538
-0.00351068
0.00117123
0.00833097
0.0174584
0.0279455
0.0390815
0.0500665
0.0600454
0.0681616
0.0736229
0.0757943
0.0743655
0.0692863
0.0595221
0.0445335
0.0251753
0.00714731
-0.00380485
-0.00906013
-0.0105152
-0.00850319
-0.00336021
0.00442588
0.0143097
0.0256754
0.0378103
0.0498998
0.0610446
0.0702997
0.0767311
0.0795134
0.0781354
0.07233
0.0605357
0.0418864
0.0210908
-0.000265175
-0.0129374
-0.0187123
-0.0200328
-0.017417
-0.0113216
-0.00232312
0.00898688
0.0219726
0.0359061
0.0499408
0.0631087
0.0743418
0.0825184
0.086566
0.0857171
0.0794435
0.0656168
0.0430681
0.01114
-0.0136211
-0.027878
-0.0338572
-0.0346065
-0.0308605
-0.023216
-0.0123485
0.00110142
0.0164804
0.033049
0.0499301
0.0660799
0.0802865
0.0911973
0.0974266
0.0978668
0.0916325
0.0758927
0.0491129
-0.00597004
-0.0342694
-0.0498731
-0.0555517
-0.0550932
-0.0495176
-0.0395966
-0.0261165
-0.00976038
0.00881959
0.0288975
0.04959
0.069794
0.0881511
0.103044
0.112698
0.115547
0.110188
0.0928308
0.0614079
-0.0318601
-0.0638792
-0.08042
-0.0850103
-0.0824233
-0.0740814
-0.060984
-0.0440397
-0.0239547
-0.00134015
0.0231422
0.0486576
0.0740922
0.0979688
0.118393
0.133122
0.139985
0.136815
0.118437
0.0819304
-0.0686704
-0.104606
-0.121348
-0.123593
-0.117519
-0.10513
-0.0877214
-0.0663286
-0.0416401
-0.0141587
0.0156024
0.0469499
0.0788524
0.10979
0.13762
0.159582
0.172724
0.173775
0.155517
0.113568
-0.119405
-0.15936
-0.174918
-0.17276
-0.161151
-0.142932
-0.119762
-0.0927801
-0.0625805
-0.0294507
0.00637009
0.0444704
0.084052
0.1237
0.161133
0.193083
0.215665
0.224074
0.208047
0.160629
-0.188631
-0.232245
-0.243941
-0.233951
-0.213697
-0.187157
-0.156375
-0.122504
-0.0859008
-0.046475
-0.00401729
0.041536
0.0898393
0.139826
0.189316
0.234686
0.271072
0.291661
0.28174
0.229773
-0.283977
-0.329307
-0.331834
-0.308282
-0.274711
-0.236442
-0.195767
-0.153613
-0.109843
-0.0637477
-0.0144404
0.0388609
0.0965518
0.158274
0.222372
0.285285
0.341395
0.381572
0.384912
0.331832
-0.419321
-0.459673
-0.442353
-0.395794
-0.342131
-0.287741
-0.234618
-0.182932
-0.131611
-0.078987
-0.0232161
0.0374733
0.104551
0.178836
0.259859
0.344968
0.428614
0.499698
0.529673
0.485389
-0.620533
-0.636745
-0.578679
-0.494195
-0.411242
-0.33566
-0.267782
-0.205979
-0.147538
-0.0893844
-0.0284276
0.0383468
0.113805
0.20047
0.299974
0.412024
0.533028
0.651773
0.73277
0.722394
-0.935925
-0.878516
-0.741743
-0.59795
-0.474394
-0.37266
-0.288869
-0.217764
-0.153954
-0.0924649
-0.0287184
0.0416946
0.123262
0.220717
0.338925
0.482154
0.651996
0.84134
1.01527
1.0975
-1.47642
-1.20663
-0.920504
-0.691389
-0.517306
-0.387545
-0.290062
-0.213338
-0.148125
-0.0872163
-0.0245785
0.0454566
0.128936
0.23307
0.367102
0.542677
0.771292
1.05932
1.40329
1.73014
-2.53965
-1.63055
-1.04444
-0.710959
-0.495751
-0.352094
-0.254531
-0.183584
-0.12617
-0.0735959
-0.0192699
0.042786
0.119211
0.218782
0.354811
0.547983
0.826392
1.23658
1.91168
2.92419
-4.36667
-2.04463
-0.973543
-0.563181
-0.357847
-0.240147
-0.17012
-0.123784
-0.087482
-0.0535111
-0.0166554
0.0276597
0.0846064
0.161729
0.27241
0.442098
0.718218
1.22571
2.41103
4.84853
)
;

boundaryField
{
    movingWall
    {
        type            zeroGradient;
    }
    fixedWalls
    {
        type            zeroGradient;
    }
    frontAndBack
    {
        type            empty;
    }
}


// ************************************************************************* //
