/*--------------------------------*- C++ -*----------------------------------*\
  =========                 |
  \\      /  F ield         | OpenFOAM: The Open Source CFD Toolbox
   \\    /   O peration     | Website:  https://openfoam.org
    \\  /    A nd           | Version:  8
     \\/     M anipulation  |
\*---------------------------------------------------------------------------*/
FoamFile
{
    version     2.0;
    format      ascii;
    class       volScalarField;
    location    "2.9";
    object      T;
}
// * * * * * * * * * * * * * * * * * * * * * * * * * * * * * * * * * * * * * //

dimensions      [0 0 0 1 0 0 0];

internalField   nonuniform List<scalar> 
400
(
293.575
294.711
295.867
297.093
298.392
299.706
300.953
302.059
302.97
303.641
304.037
304.124
303.872
303.259
302.279
300.955
299.344
297.548
295.693
293.883
294.776
298.291
301.892
305.741
309.814
313.883
317.655
320.901
323.472
325.273
326.233
326.286
325.374
323.451
320.502
316.575
311.818
306.508
301.008
295.623
296.082
302.159
308.401
315.062
322.025
328.818
334.925
340.01
343.91
346.549
347.874
347.823
346.31
343.24
338.531
332.189
324.39
315.569
306.37
297.361
297.491
306.299
315.35
324.934
334.726
343.939
351.878
358.219
362.91
365.996
367.518
367.45
365.677
361.995
356.154
347.962
337.466
325.168
312.066
299.184
298.982
310.639
322.591
335.068
347.393
358.419
367.373
374.118
378.87
381.916
383.457
383.54
382.017
378.537
372.577
363.56
351.129
335.6
318.332
301.162
300.532
315.103
329.958
345.13
359.435
371.367
380.258
386.384
390.392
392.885
394.255
394.63
393.84
391.397
386.479
377.996
364.881
346.813
325.263
303.318
302.125
319.625
337.284
354.778
370.267
381.97
389.616
394.151
396.75
398.314
399.377
400.121
400.376
399.575
396.678
390.1
377.878
358.502
332.882
305.65
303.751
324.178
344.465
363.709
379.371
389.636
394.996
397.279
398.143
398.647
399.367
400.498
401.887
402.981
402.668
399.043
389.284
370.253
341.243
308.15
305.386
328.621
351.227
371.587
386.372
394.107
396.505
396.328
395.485
395.009
395.424
396.899
399.324
402.236
404.615
404.488
398.434
381.577
350.429
310.833
307.081
333.183
357.791
378.329
391.079
395.476
394.719
392.275
389.986
388.718
388.884
390.616
393.859
398.289
403.105
406.519
404.908
391.918
360.463
313.77
308.715
337.272
363.376
383.46
393.428
394.154
390.48
386.208
382.828
380.981
380.952
382.838
386.632
392.167
398.93
405.524
408.557
400.732
371.225
317.183
310.551
341.916
369.069
387.531
393.796
390.769
384.709
379.149
375.032
372.808
372.632
374.579
378.667
384.866
392.964
402.084
409.484
407.58
382.412
321.582
312.174
345.451
373.064
389.513
392.046
385.925
378.305
371.988
367.451
365.023
364.743
366.682
370.86
377.319
386.11
396.908
407.994
412.183
393.553
327.817
314.502
350.399
377.807
391.077
389.518
380.795
372.211
365.521
360.841
358.346
358.002
359.883
364.007
370.396
379.291
390.81
404.571
414.449
404.071
336.913
315.852
353.465
380.04
390.14
385.372
375.438
366.922
360.483
356.027
353.621
353.243
354.987
358.926
364.966
373.465
384.723
399.876
414.47
413.376
349.621
320.326
358.962
383.888
390.084
382.69
372.454
364.437
358.47
354.393
352.169
351.771
353.217
356.744
362.066
369.72
379.778
394.829
412.55
420.979
365.854
319.317
361.848
384.091
387.261
379.489
370.818
364.417
359.913
356.98
355.406
355.326
356.404
359.229
363.222
369.48
377.455
390.844
409.347
426.596
384.345
329.398
367.419
387.028
388.809
383.364
377.591
373.191
369.916
367.979
366.579
366.492
366.66
368.414
370.395
374.734
379.883
390.401
406.426
430.437
403.013
320.436
367.2
382.177
385.786
385.745
384.145
383.299
381.902
381.833
381.031
381.842
381.662
383.543
384.229
387.881
390.484
398.63
408.159
434.302
420.301
333.409
357.226
370.565
378.529
385.486
390.052
395.342
398.552
403.289
405.624
410.261
411.86
416.775
417.687
423.443
423.772
431.72
431.83
446.791
437.528
)
;

boundaryField
{
    movingWall
    {
        type            fixedValue;
        value           uniform 493;
    }
    fixedWalls
    {
        type            fixedValue;
        value           uniform 293;
    }
    frontAndBack
    {
        type            empty;
    }
}


// ************************************************************************* //
