/*--------------------------------*- C++ -*----------------------------------*\
  =========                 |
  \\      /  F ield         | OpenFOAM: The Open Source CFD Toolbox
   \\    /   O peration     | Website:  https://openfoam.org
    \\  /    A nd           | Version:  8
     \\/     M anipulation  |
\*---------------------------------------------------------------------------*/
FoamFile
{
    version     2.0;
    format      ascii;
    class       volScalarField;
    location    "6.3";
    object      p;
}
// * * * * * * * * * * * * * * * * * * * * * * * * * * * * * * * * * * * * * //

dimensions      [0 2 -2 0 0 0 0];

internalField   nonuniform List<scalar> 
400
(
4.28969e-07
-0.00582925
-0.0129677
-0.0184203
-0.020438
-0.0182444
-0.0117799
-0.00148962
0.0118315
0.0271434
0.0432387
0.0588175
0.0725732
0.0833031
0.0900475
0.0922617
0.0900206
0.0842385
0.0768752
0.0710616
0.00577682
-0.000222781
-0.00580892
-0.00954782
-0.0106045
-0.00843845
-0.00297578
0.00546828
0.0162971
0.028706
0.0417441
0.0543804
0.0655809
0.0744045
0.0801149
0.0823104
0.0810719
0.0770494
0.0712686
0.0653123
0.0133305
0.0050289
-0.00100031
-0.00442833
-0.00527837
-0.00326959
0.00159653
0.0090217
0.0184962
0.0293435
0.0407598
0.0518641
0.061763
0.0696309
0.0748015
0.0768726
0.0758361
0.0720804
0.0657999
0.0575298
0.0201347
0.00869107
0.0012208
-0.00267374
-0.0037275
-0.00189089
0.00272551
0.00977868
0.0187745
0.0290892
0.0399862
0.0506484
0.0602274
0.0679104
0.0729976
0.0749959
0.0737602
0.0694505
0.0615973
0.0500968
0.0244973
0.00976816
0.000584665
-0.00399214
-0.00530757
-0.00351282
0.00116907
0.00832873
0.0174561
0.0279431
0.0390792
0.0500642
0.0600432
0.0681595
0.0736207
0.0757921
0.0743633
0.069284
0.0595198
0.0445312
0.0251731
0.00714505
-0.00380717
-0.00906245
-0.0105175
-0.00850538
-0.00336234
0.00442373
0.0143075
0.0256731
0.0378079
0.0498975
0.0610424
0.0702975
0.076729
0.0795112
0.0781332
0.0723277
0.0605334
0.0418841
0.0210886
-0.000267384
-0.0129397
-0.0187146
-0.0200352
-0.0174193
-0.0113238
-0.00232524
0.00898473
0.0219704
0.0359037
0.0499385
0.0631063
0.0743395
0.0825162
0.0865638
0.085715
0.0794413
0.0656145
0.0430658
0.0111378
-0.0136233
-0.0278803
-0.0338595
-0.0346089
-0.0308629
-0.0232182
-0.0123506
0.0010993
0.0164782
0.0330467
0.0499278
0.0660775
0.0802841
0.091195
0.0974243
0.0978646
0.0916303
0.0758905
0.0491106
-0.00597232
-0.0342716
-0.0498753
-0.0555539
-0.0550955
-0.04952
-0.0395989
-0.0261187
-0.00976256
0.00881746
0.0288953
0.0495877
0.0697917
0.0881488
0.103042
0.112695
0.115545
0.110186
0.0928286
0.0614057
-0.0318625
-0.0638814
-0.0804222
-0.0850125
-0.0824255
-0.0740838
-0.0609864
-0.0440421
-0.0239569
-0.00134235
0.0231401
0.0486554
0.07409
0.0979666
0.11839
0.13312
0.139983
0.136812
0.118435
0.0819282
-0.0686728
-0.104609
-0.12135
-0.123595
-0.117521
-0.105132
-0.0877237
-0.066331
-0.0416424
-0.014161
0.0156002
0.0469478
0.0788503
0.109788
0.137618
0.15958
0.172721
0.173773
0.155515
0.113565
-0.119408
-0.159362
-0.17492
-0.172762
-0.161153
-0.142934
-0.119764
-0.0927824
-0.0625828
-0.029453
0.00636779
0.0444682
0.0840498
0.123698
0.161131
0.193081
0.215663
0.224072
0.208045
0.160627
-0.188634
-0.232247
-0.243944
-0.233953
-0.213699
-0.187159
-0.156377
-0.122506
-0.0859031
-0.0464774
-0.00401963
0.0415337
0.089837
0.139824
0.189314
0.234684
0.271069
0.291659
0.281738
0.229771
-0.283979
-0.32931
-0.331837
-0.308285
-0.274713
-0.236444
-0.195769
-0.153615
-0.109845
-0.06375
-0.0144427
0.0388586
0.0965495
0.158272
0.222369
0.285283
0.341392
0.38157
0.384909
0.331829
-0.419323
-0.459676
-0.442355
-0.395796
-0.342133
-0.287744
-0.23462
-0.182934
-0.131614
-0.0789892
-0.0232183
0.037471
0.104549
0.178833
0.259857
0.344966
0.428612
0.499696
0.529671
0.485387
-0.620536
-0.636748
-0.578681
-0.494197
-0.411244
-0.335662
-0.267784
-0.205981
-0.14754
-0.0893866
-0.0284298
0.0383445
0.113803
0.200468
0.299971
0.412021
0.533026
0.651771
0.732768
0.722392
-0.935927
-0.878518
-0.741745
-0.597952
-0.474396
-0.372662
-0.288872
-0.217766
-0.153957
-0.0924672
-0.0287206
0.0416924
0.12326
0.220715
0.338922
0.482151
0.651993
0.841338
1.01527
1.0975
-1.47643
-1.20663
-0.920506
-0.691391
-0.517308
-0.387547
-0.290064
-0.21334
-0.148127
-0.0872186
-0.0245807
0.0454543
0.128934
0.233068
0.3671
0.542675
0.77129
1.05931
1.40328
1.73014
-2.53965
-1.63055
-1.04444
-0.710961
-0.495753
-0.352096
-0.254534
-0.183586
-0.126172
-0.0735982
-0.0192722
0.0427837
0.119209
0.218779
0.354809
0.547981
0.82639
1.23658
1.91167
2.92419
-4.36667
-2.04464
-0.973545
-0.563183
-0.357849
-0.240149
-0.170122
-0.123786
-0.0874843
-0.0535134
-0.0166577
0.0276574
0.0846042
0.161726
0.272408
0.442096
0.718216
1.22571
2.41103
4.84853
)
;

boundaryField
{
    movingWall
    {
        type            zeroGradient;
    }
    fixedWalls
    {
        type            zeroGradient;
    }
    frontAndBack
    {
        type            empty;
    }
}


// ************************************************************************* //
