/*--------------------------------*- C++ -*----------------------------------*\
  =========                 |
  \\      /  F ield         | OpenFOAM: The Open Source CFD Toolbox
   \\    /   O peration     | Website:  https://openfoam.org
    \\  /    A nd           | Version:  8
     \\/     M anipulation  |
\*---------------------------------------------------------------------------*/
FoamFile
{
    version     2.0;
    format      ascii;
    class       volScalarField;
    location    "8.3";
    object      T;
}
// * * * * * * * * * * * * * * * * * * * * * * * * * * * * * * * * * * * * * //

dimensions      [0 0 0 1 0 0 0];

internalField   nonuniform List<scalar> 
400
(
293.79
295.317
296.778
298.233
299.715
301.19
302.578
303.797
304.784
305.491
305.879
305.913
305.564
304.811
303.654
302.118
300.269
298.215
296.093
294.015
295.425
300.106
304.611
309.133
313.751
318.298
322.479
326.034
328.796
330.661
331.555
331.417
330.193
327.847
324.378
319.846
314.419
308.389
302.14
295.998
297.159
305.152
312.855
320.591
328.428
335.984
342.723
348.263
352.419
355.108
356.277
355.871
353.819
350.042
344.489
337.19
328.354
318.435
308.1
297.937
298.983
310.416
321.44
332.464
343.428
353.658
362.419
369.34
374.346
377.472
378.754
378.17
375.624
370.945
363.927
354.433
342.557
328.834
314.279
299.92
300.871
315.819
330.222
344.479
358.266
370.565
380.56
388.066
393.265
396.409
397.673
397.1
394.563
389.757
382.236
371.51
357.309
340.007
320.975
302.036
302.803
321.297
339.053
356.343
372.427
385.954
396.208
403.4
408.1
410.831
411.935
411.52
409.444
405.286
398.333
387.632
372.26
351.998
328.339
304.327
304.768
326.799
347.8
367.772
385.426
399.164
408.64
414.68
418.314
420.315
421.143
420.953
419.607
416.631
411.129
401.712
386.63
364.544
336.416
306.795
306.761
332.302
356.373
378.517
396.843
409.727
417.528
421.862
424.167
425.342
425.869
425.909
425.35
423.746
420.168
412.967
399.617
377.249
345.266
309.435
308.776
337.742
364.597
388.316
406.378
417.462
423.029
425.519
426.566
427.02
427.292
427.519
427.628
427.278
425.659
421.11
410.601
389.648
354.98
312.262
310.834
343.188
372.562
397.088
413.893
422.496
425.71
426.587
426.66
426.595
426.685
427.022
427.582
428.167
428.205
426.265
419.21
401.22
365.597
315.349
312.921
348.499
379.845
404.506
419.365
425.222
426.351
426.058
425.511
425.148
425.124
425.49
426.261
427.387
428.585
428.84
425.333
411.459
377.016
318.928
315.085
353.82
386.988
410.92
423.102
426.199
425.751
424.784
423.937
423.461
423.384
423.724
424.51
425.803
427.6
429.401
429.099
419.962
388.958
323.521
317.394
359.186
393.104
415.705
425.07
425.931
424.596
423.373
422.458
421.992
421.908
422.212
422.91
424.099
425.991
428.582
430.815
426.482
400.98
330.006
319.876
364.333
399.367
419.876
426.192
425.248
423.457
422.176
421.305
420.893
420.829
421.12
421.744
422.719
424.371
427.023
430.909
430.947
412.531
339.447
322.614
370.369
404.332
422.228
425.918
424.051
422.369
421.263
420.52
420.158
420.11
420.402
421.036
421.838
423.161
425.312
429.893
433.435
423.052
352.649
326.564
375.368
409.631
424.555
426.029
423.748
422.169
421.073
420.326
419.932
419.868
420.093
420.771
421.444
422.559
423.93
428.345
434.159
432.067
369.573
328.64
382.845
413.238
424.699
424.952
422.988
421.743
421.001
420.567
420.317
420.457
420.572
421.23
421.587
422.611
423.211
426.937
433.479
439.24
388.974
336.727
386.684
416.06
425.536
426.374
425.399
424.499
423.657
423.327
422.73
422.812
422.361
422.811
422.446
423.39
423.348
426.587
432.104
444.51
408.704
332.543
392.474
412.985
420.122
422.664
422.83
423.27
422.621
423.071
422.351
423.116
422.419
423.648
423.019
425.054
424.817
429.218
432.035
448.707
426.949
338.625
368.209
384.025
393.209
400.953
405.881
411.477
414.719
419.572
421.756
426.406
427.689
432.521
432.897
438.402
437.77
445.049
443.176
456.617
444.127
)
;

boundaryField
{
    movingWall
    {
        type            fixedValue;
        value           uniform 493;
    }
    fixedWalls
    {
        type            fixedValue;
        value           uniform 293;
    }
    frontAndBack
    {
        type            empty;
    }
}


// ************************************************************************* //
