/*--------------------------------*- C++ -*----------------------------------*\
  =========                 |
  \\      /  F ield         | OpenFOAM: The Open Source CFD Toolbox
   \\    /   O peration     | Website:  https://openfoam.org
    \\  /    A nd           | Version:  8
     \\/     M anipulation  |
\*---------------------------------------------------------------------------*/
FoamFile
{
    version     2.0;
    format      ascii;
    class       volScalarField;
    location    "3.2";
    object      p;
}
// * * * * * * * * * * * * * * * * * * * * * * * * * * * * * * * * * * * * * //

dimensions      [0 2 -2 0 0 0 0];

internalField   nonuniform List<scalar> 
400
(
1.4354e-06
-0.00582754
-0.0129658
-0.0184184
-0.0204361
-0.0182425
-0.011778
-0.00148771
0.0118334
0.0271453
0.0432407
0.0588194
0.0725751
0.083305
0.0900495
0.0922637
0.0900225
0.0842404
0.0768771
0.0710635
0.00577853
-0.000220961
-0.00580705
-0.00954594
-0.0106026
-0.00843655
-0.00297388
0.00547018
0.016299
0.0287079
0.0417461
0.0543823
0.0655828
0.0744064
0.0801168
0.0823123
0.0810738
0.0770513
0.0712705
0.0653142
0.0133324
0.00503076
-0.000998436
-0.00442644
-0.00527647
-0.00326768
0.00159843
0.0090236
0.0184981
0.0293454
0.0407617
0.051866
0.0617649
0.0696328
0.0748034
0.0768745
0.075838
0.0720823
0.0658018
0.0575317
0.0201366
0.00869294
0.00122268
-0.00267186
-0.0037256
-0.00188898
0.00272742
0.00978058
0.0187764
0.0290911
0.0399881
0.0506503
0.0602293
0.0679123
0.0729996
0.0749978
0.0737621
0.0694524
0.0615992
0.0500987
0.0244992
0.00977005
0.00058655
-0.00399025
-0.00530567
-0.00351091
0.00117099
0.00833064
0.017458
0.027945
0.039081
0.0500661
0.0600452
0.0681614
0.0736227
0.075794
0.0743652
0.0692859
0.0595217
0.0445331
0.025175
0.00714696
-0.00380528
-0.00906057
-0.0105156
-0.00850348
-0.00336043
0.00442564
0.0143094
0.025675
0.0378098
0.0498994
0.0610443
0.0702994
0.0767309
0.0795131
0.0781351
0.0723296
0.0605353
0.041886
0.0210906
-0.00026547
-0.0129378
-0.0187127
-0.0200333
-0.0174174
-0.0113219
-0.00232333
0.00898665
0.0219723
0.0359056
0.0499404
0.0631082
0.0743414
0.0825181
0.0865657
0.0857169
0.0794432
0.0656164
0.0430677
0.0111397
-0.0136214
-0.0278783
-0.0338576
-0.034607
-0.030861
-0.0232164
-0.0123487
0.00110122
0.0164801
0.0330487
0.0499297
0.0660794
0.080286
0.0911969
0.0974263
0.0978665
0.0916322
0.0758924
0.0491125
-0.00597041
-0.0342697
-0.0498733
-0.055552
-0.0550936
-0.0495181
-0.039597
-0.0261168
-0.00976065
0.00881937
0.0288973
0.0495897
0.0697936
0.0881507
0.103044
0.112697
0.115547
0.110188
0.0928305
0.0614076
-0.0318606
-0.0638795
-0.0804203
-0.0850105
-0.0824235
-0.0740819
-0.0609845
-0.0440402
-0.023955
-0.00134044
0.023142
0.0486573
0.0740919
0.0979685
0.118392
0.133122
0.139985
0.136814
0.118437
0.0819301
-0.0686709
-0.104607
-0.121348
-0.123593
-0.117519
-0.10513
-0.0877218
-0.0663291
-0.0416406
-0.0141591
0.0156021
0.0469497
0.0788522
0.10979
0.13762
0.159582
0.172723
0.173775
0.155517
0.113567
-0.119406
-0.15936
-0.174918
-0.17276
-0.161151
-0.142932
-0.119762
-0.0927805
-0.0625809
-0.0294511
0.00636969
0.0444701
0.0840517
0.1237
0.161133
0.193083
0.215665
0.224074
0.208047
0.160629
-0.188632
-0.232245
-0.243942
-0.233951
-0.213697
-0.187157
-0.156376
-0.122504
-0.0859012
-0.0464755
-0.00401773
0.0415356
0.0898389
0.139826
0.189316
0.234686
0.271071
0.291661
0.28174
0.229773
-0.283978
-0.329308
-0.331835
-0.308283
-0.274711
-0.236442
-0.195767
-0.153613
-0.109843
-0.0637481
-0.0144408
0.0388605
0.0965514
0.158274
0.222371
0.285285
0.341394
0.381572
0.384911
0.331831
-0.419321
-0.459674
-0.442353
-0.395795
-0.342131
-0.287742
-0.234618
-0.182932
-0.131612
-0.0789873
-0.0232164
0.0374729
0.104551
0.178835
0.259859
0.344968
0.428614
0.499698
0.529673
0.485389
-0.620534
-0.636746
-0.578679
-0.494195
-0.411242
-0.33566
-0.267782
-0.205979
-0.147538
-0.0893847
-0.0284278
0.0383465
0.113805
0.20047
0.299973
0.412023
0.533028
0.651773
0.73277
0.722394
-0.935925
-0.878516
-0.741743
-0.59795
-0.474394
-0.37266
-0.28887
-0.217764
-0.153955
-0.0924653
-0.0287187
0.0416943
0.123262
0.220717
0.338924
0.482153
0.651995
0.84134
1.01527
1.0975
-1.47642
-1.20663
-0.920504
-0.691389
-0.517306
-0.387545
-0.290062
-0.213338
-0.148125
-0.0872167
-0.0245788
0.0454562
0.128936
0.23307
0.367102
0.542677
0.771292
1.05932
1.40329
1.73014
-2.53965
-1.63055
-1.04444
-0.71096
-0.495751
-0.352094
-0.254532
-0.183584
-0.12617
-0.0735963
-0.0192703
0.0427856
0.119211
0.218781
0.354811
0.547982
0.826392
1.23658
1.91168
2.92419
-4.36667
-2.04464
-0.973543
-0.563181
-0.357847
-0.240147
-0.17012
-0.123784
-0.0874823
-0.0535115
-0.0166558
0.0276593
0.0846061
0.161728
0.27241
0.442098
0.718218
1.22571
2.41103
4.84853
)
;

boundaryField
{
    movingWall
    {
        type            zeroGradient;
    }
    fixedWalls
    {
        type            zeroGradient;
    }
    frontAndBack
    {
        type            empty;
    }
}


// ************************************************************************* //
