/*--------------------------------*- C++ -*----------------------------------*\
  =========                 |
  \\      /  F ield         | OpenFOAM: The Open Source CFD Toolbox
   \\    /   O peration     | Website:  https://openfoam.org
    \\  /    A nd           | Version:  8
     \\/     M anipulation  |
\*---------------------------------------------------------------------------*/
FoamFile
{
    version     2.0;
    format      ascii;
    class       volScalarField;
    location    "3.2";
    object      T;
}
// * * * * * * * * * * * * * * * * * * * * * * * * * * * * * * * * * * * * * //

dimensions      [0 0 0 1 0 0 0];

internalField   nonuniform List<scalar> 
400
(
293.618
294.83
296.038
297.297
298.616
299.947
301.21
302.33
303.249
303.924
304.318
304.397
304.13
303.497
302.492
301.136
299.49
297.654
295.757
293.904
294.904
298.641
302.396
306.335
310.468
314.587
318.405
321.686
324.277
326.083
327.03
327.053
326.096
324.112
321.089
317.074
312.22
306.802
301.186
295.682
296.291
302.726
309.207
316.004
323.058
329.929
336.104
341.237
345.16
347.797
349.093
348.988
347.399
344.229
339.404
332.928
324.982
316.003
306.635
297.45
297.774
307.061
316.421
326.177
336.085
345.399
353.422
359.818
364.532
367.609
369.088
368.944
367.064
363.247
357.249
348.882
338.199
325.703
312.393
299.294
299.332
311.574
323.895
336.572
349.036
360.185
369.24
376.055
380.842
383.883
385.377
385.369
383.711
380.058
373.896
364.656
351.99
336.222
318.71
301.288
300.944
316.194
331.468
346.866
361.336
373.423
382.448
388.677
392.748
395.254
396.581
396.852
395.898
393.239
388.063
379.295
365.887
347.529
325.693
303.461
302.592
320.857
338.982
356.731
372.42
384.325
392.158
396.847
399.552
401.156
402.183
402.809
402.867
401.799
398.578
391.642
379.054
359.324
333.368
305.809
304.272
325.541
346.337
365.871
381.786
392.32
397.937
400.438
401.457
402.03
402.722
403.721
404.879
405.649
404.938
400.87
390.657
371.195
341.791
308.327
305.96
330.117
353.276
373.966
389.072
397.159
399.898
400.01
399.372
398.995
399.389
400.72
402.877
405.408
407.31
406.645
400.035
382.655
351.045
311.028
307.703
334.787
359.998
380.932
394.093
398.94
398.612
396.527
394.493
393.352
393.505
395.082
398.025
402.019
406.279
409.054
406.773
393.151
361.154
313.984
309.397
339.035
365.784
386.318
396.789
398.067
394.909
391.062
387.98
386.286
386.253
387.976
391.445
396.496
402.63
408.483
410.726
402.144
372.001
317.419
311.273
343.746
371.626
390.64
397.526
395.158
389.693
384.612
380.827
378.775
378.605
380.387
384.136
389.817
397.225
405.511
411.995
409.198
383.286
321.843
312.989
347.524
375.875
392.937
396.187
390.805
383.836
378.032
373.848
371.604
371.339
373.118
376.955
382.881
390.946
400.834
410.889
414.038
394.54
328.111
315.326
352.458
380.758
394.768
394.043
386.136
378.238
372.074
367.748
365.439
365.117
366.85
370.647
376.514
384.676
395.243
407.879
416.573
405.189
337.253
316.87
355.926
383.324
394.204
390.319
381.208
373.358
367.417
363.29
361.059
360.705
362.319
365.962
371.518
379.32
389.633
403.61
416.893
414.649
350.026
321.251
361.293
387.281
394.372
387.907
378.473
371.073
365.554
361.769
359.7
359.327
360.665
363.941
368.843
375.883
385.066
398.961
415.289
422.428
366.351
320.673
364.802
387.915
391.906
384.955
376.945
371.029
366.867
364.153
362.689
362.622
363.61
366.239
369.898
375.666
382.908
395.267
412.387
428.239
384.962
330.449
370.064
390.75
393.319
388.534
383.255
379.204
376.166
374.383
373.056
372.985
373.091
374.722
376.475
380.483
385.099
394.839
409.649
432.256
403.769
322.151
370.696
386.255
390.199
390.408
388.977
388.252
386.918
386.892
386.084
386.881
386.635
388.44
388.975
392.448
394.727
402.447
411.174
436.165
421.181
334.155
358.781
372.434
380.538
387.58
392.177
397.494
400.697
405.439
407.744
412.376
413.926
418.826
419.664
425.387
425.59
433.457
433.316
448.091
438.405
)
;

boundaryField
{
    movingWall
    {
        type            fixedValue;
        value           uniform 493;
    }
    fixedWalls
    {
        type            fixedValue;
        value           uniform 293;
    }
    frontAndBack
    {
        type            empty;
    }
}


// ************************************************************************* //
