/*--------------------------------*- C++ -*----------------------------------*\
  =========                 |
  \\      /  F ield         | OpenFOAM: The Open Source CFD Toolbox
   \\    /   O peration     | Website:  https://openfoam.org
    \\  /    A nd           | Version:  8
     \\/     M anipulation  |
\*---------------------------------------------------------------------------*/
FoamFile
{
    version     2.0;
    format      ascii;
    class       volScalarField;
    location    "0.7";
    object      T;
}
// * * * * * * * * * * * * * * * * * * * * * * * * * * * * * * * * * * * * * //

dimensions      [0 0 0 1 0 0 0];

internalField   nonuniform List<scalar> 
400
(
293
292.998
293.002
293.01
293.02
293.04
293.083
293.161
293.284
293.443
293.614
293.763
293.856
293.867
293.788
293.634
293.441
293.256
293.118
293.032
292.998
292.998
293.012
293.038
293.086
293.194
293.43
293.859
294.504
295.301
296.114
296.781
297.162
297.166
296.769
296.033
295.113
294.227
293.56
293.149
293
293.007
293.035
293.098
293.255
293.654
294.516
296.028
298.171
300.647
303.004
304.822
305.792
305.725
304.563
302.433
299.7
296.958
294.815
293.475
293.005
293.024
293.081
293.246
293.731
294.971
297.53
301.702
307.084
312.679
317.508
320.964
322.698
322.477
320.159
315.794
309.842
303.383
297.906
294.284
293.012
293.053
293.181
293.618
294.939
298.165
304.275
313.117
322.927
331.607
338.175
342.529
344.678
344.473
341.547
335.475
326.221
314.846
303.896
295.907
293.023
293.105
293.404
294.462
297.548
304.451
315.905
329.687
341.758
350.116
355.529
359.051
361.158
361.732
360.022
354.786
344.771
329.865
312.78
298.463
293.04
293.199
293.841
296.112
302.202
314.166
330.552
345.375
353.955
357.756
360.034
362.111
364.505
366.887
368.19
366.491
359.238
344.304
322.866
301.612
293.081
293.434
294.716
298.866
308.931
325.591
342.928
352.373
353.494
352.698
352.928
354.598
358.041
362.679
367.47
370.227
367.565
355.38
332.187
304.75
293.105
293.588
295.82
302.659
316.786
335.44
348.182
348.716
344.139
341.793
341.478
343.556
348.077
354.674
362.558
369.648
372.04
363.86
340.5
307.565
293.286
294.486
297.967
307.339
324.204
341.02
345.586
338.626
332.339
329.827
329.131
331.492
336.437
344.35
354.68
365.901
373.873
371.039
348.881
310.254
293.196
294.208
299.417
311.867
329.766
341.528
337.544
326.733
320.924
318.023
317.164
319.467
324.262
332.591
344.345
358.911
372.55
376.526
357.842
313.256
293.821
296.781
303.013
316.606
332.866
337.722
327.15
315.804
311.048
307.969
307.451
309.412
313.652
321.362
333.247
349.734
368.248
379.693
367.024
317.125
293.153
294.739
303.714
319.34
332.991
331.175
317.057
307.279
303.626
300.937
300.879
302.385
305.755
312.033
322.747
339.504
361.544
380.377
375.933
322.668
295.144
300.504
308.739
322.851
331.568
323.944
309.028
301.617
298.975
297.039
297.329
298.591
301.096
305.622
314.119
329.38
353.073
378.486
383.992
330.821
292.128
295.032
307.277
322.018
327.504
317.273
303.921
298.611
296.726
295.527
296.016
297.337
299.396
302.495
308.447
320.746
343.86
374.204
390.571
342.205
298.877
305.206
314.039
324.986
325.787
314.015
302.077
297.347
295.84
295.337
296.035
297.522
299.617
302.048
306.067
314.809
335.202
368.045
395.201
356.629
288.39
295.225
308.41
319.558
320.632
312.333
303.642
299.313
297.836
297.696
298.56
299.881
301.789
303.763
306.842
312.643
328.915
361.063
397.717
372.825
305.854
310.449
318.216
325.076
326.035
322.182
317.192
313.2
310.684
308.888
308.164
307.642
308.147
308.752
311.206
315.529
328.035
355.788
398.801
388.914
282.484
291.032
298.913
304.577
308.076
309.4
310.371
310.523
311.445
311.798
313.308
314.196
316.676
318.619
323.188
328.331
340.04
359.544
401.819
403.901
316.959
322.928
329.975
335.964
342.337
347.341
353.062
357.246
362.608
366.121
371.398
374.343
379.878
382.401
388.839
391.399
400.512
404.75
422.354
420.894
)
;

boundaryField
{
    movingWall
    {
        type            fixedValue;
        value           uniform 493;
    }
    fixedWalls
    {
        type            fixedValue;
        value           uniform 293;
    }
    frontAndBack
    {
        type            empty;
    }
}


// ************************************************************************* //
