/*--------------------------------*- C++ -*----------------------------------*\
  =========                 |
  \\      /  F ield         | OpenFOAM: The Open Source CFD Toolbox
   \\    /   O peration     | Website:  https://openfoam.org
    \\  /    A nd           | Version:  8
     \\/     M anipulation  |
\*---------------------------------------------------------------------------*/
FoamFile
{
    version     2.0;
    format      ascii;
    class       volScalarField;
    location    "6.5";
    object      p;
}
// * * * * * * * * * * * * * * * * * * * * * * * * * * * * * * * * * * * * * //

dimensions      [0 2 -2 0 0 0 0];

internalField   nonuniform List<scalar> 
400
(
3.96713e-07
-0.0058293
-0.0129678
-0.0184203
-0.020438
-0.0182445
-0.01178
-0.00148977
0.0118314
0.0271433
0.0432388
0.0588175
0.0725732
0.0833031
0.0900474
0.0922616
0.0900204
0.0842384
0.0768752
0.0710617
0.00577677
-0.000222865
-0.005809
-0.00954787
-0.0106045
-0.00843844
-0.0029758
0.00546819
0.0162969
0.0287058
0.041744
0.0543804
0.065581
0.0744045
0.0801149
0.0823103
0.0810718
0.0770493
0.0712685
0.0653123
0.0133305
0.00502882
-0.00100042
-0.00442844
-0.00527843
-0.00326958
0.00159657
0.0090217
0.0184961
0.0293434
0.0407596
0.0518639
0.061763
0.0696309
0.0748016
0.0768726
0.0758361
0.0720803
0.0657998
0.0575298
0.0201347
0.00869103
0.0012207
-0.00267389
-0.00372763
-0.00189094
0.00272555
0.00977874
0.0187745
0.0290891
0.0399861
0.0506482
0.0602272
0.0679104
0.0729977
0.074996
0.0737602
0.0694504
0.0615972
0.0500966
0.0244972
0.00976816
0.000584621
-0.00399226
-0.00530773
-0.00351296
0.00116903
0.00832878
0.0174561
0.0279432
0.0390791
0.050064
0.0600431
0.0681593
0.0736207
0.0757921
0.0743633
0.069284
0.0595197
0.0445311
0.025173
0.00714506
-0.00380715
-0.0090625
-0.0105176
-0.00850556
-0.00336249
0.00442369
0.0143076
0.0256732
0.0378079
0.0498974
0.0610422
0.0702973
0.0767289
0.0795111
0.0781332
0.0723277
0.0605334
0.041884
0.0210885
-0.000267411
-0.0129396
-0.0187146
-0.0200352
-0.0174194
-0.011324
-0.00232539
0.00898469
0.0219704
0.0359038
0.0499385
0.0631063
0.0743394
0.082516
0.0865637
0.0857149
0.0794413
0.0656145
0.0430657
0.0111377
-0.0136234
-0.0278802
-0.0338595
-0.0346088
-0.0308629
-0.0232184
-0.0123508
0.00109915
0.0164782
0.0330468
0.0499278
0.0660776
0.0802841
0.0911949
0.0974242
0.0978645
0.0916302
0.0758905
0.0491106
-0.00597246
-0.0342718
-0.0498753
-0.0555539
-0.0550954
-0.04952
-0.039599
-0.0261189
-0.00976276
0.00881731
0.0288953
0.0495878
0.0697918
0.0881488
0.103042
0.112695
0.115545
0.110186
0.0928285
0.0614056
-0.0318626
-0.0638816
-0.0804223
-0.0850125
-0.0824254
-0.0740837
-0.0609863
-0.0440421
-0.0239571
-0.00134254
0.0231399
0.0486553
0.07409
0.0979666
0.11839
0.13312
0.139983
0.136812
0.118435
0.0819281
-0.0686728
-0.104609
-0.12135
-0.123595
-0.117521
-0.105132
-0.0877236
-0.0663309
-0.0416425
-0.0141612
0.0156
0.0469476
0.0788502
0.109788
0.137618
0.15958
0.172721
0.173773
0.155515
0.113565
-0.119408
-0.159362
-0.17492
-0.172762
-0.161153
-0.142934
-0.119764
-0.0927823
-0.0625828
-0.0294531
0.00636767
0.044468
0.0840497
0.123698
0.161131
0.193081
0.215663
0.224072
0.208045
0.160627
-0.188634
-0.232247
-0.243944
-0.233953
-0.213699
-0.187159
-0.156377
-0.122506
-0.085903
-0.0464773
-0.00401966
0.0415336
0.0898369
0.139824
0.189314
0.234684
0.271069
0.291659
0.281738
0.229771
-0.283979
-0.32931
-0.331836
-0.308285
-0.274713
-0.236445
-0.195769
-0.153615
-0.109845
-0.0637499
-0.0144427
0.0388586
0.0965494
0.158272
0.222369
0.285283
0.341392
0.38157
0.384909
0.331829
-0.419323
-0.459676
-0.442355
-0.395796
-0.342133
-0.287744
-0.23462
-0.182934
-0.131614
-0.0789892
-0.0232183
0.037471
0.104549
0.178833
0.259857
0.344966
0.428612
0.499696
0.529671
0.485387
-0.620536
-0.636748
-0.578681
-0.494197
-0.411244
-0.335662
-0.267784
-0.205981
-0.14754
-0.0893868
-0.0284298
0.0383445
0.113803
0.200468
0.299971
0.412021
0.533026
0.651771
0.732768
0.722392
-0.935928
-0.878518
-0.741745
-0.597952
-0.474396
-0.372662
-0.288872
-0.217766
-0.153957
-0.0924673
-0.0287207
0.0416923
0.12326
0.220715
0.338922
0.482151
0.651993
0.841338
1.01527
1.0975
-1.47643
-1.20663
-0.920506
-0.691391
-0.517308
-0.387547
-0.290064
-0.21334
-0.148127
-0.0872187
-0.0245808
0.0454542
0.128934
0.233068
0.3671
0.542675
0.77129
1.05931
1.40328
1.73014
-2.53965
-1.63055
-1.04444
-0.710962
-0.495753
-0.352096
-0.254534
-0.183586
-0.126172
-0.0735982
-0.0192722
0.0427836
0.119209
0.218779
0.354809
0.54798
0.82639
1.23658
1.91167
2.92419
-4.36667
-2.04464
-0.973545
-0.563183
-0.357849
-0.240149
-0.170122
-0.123786
-0.0874843
-0.0535134
-0.0166577
0.0276574
0.0846041
0.161726
0.272408
0.442096
0.718216
1.22571
2.41103
4.84853
)
;

boundaryField
{
    movingWall
    {
        type            zeroGradient;
    }
    fixedWalls
    {
        type            zeroGradient;
    }
    frontAndBack
    {
        type            empty;
    }
}


// ************************************************************************* //
