/*--------------------------------*- C++ -*----------------------------------*\
  =========                 |
  \\      /  F ield         | OpenFOAM: The Open Source CFD Toolbox
   \\    /   O peration     | Website:  https://openfoam.org
    \\  /    A nd           | Version:  8
     \\/     M anipulation  |
\*---------------------------------------------------------------------------*/
FoamFile
{
    version     2.0;
    format      ascii;
    class       volScalarField;
    location    "6.5";
    object      T;
}
// * * * * * * * * * * * * * * * * * * * * * * * * * * * * * * * * * * * * * //

dimensions      [0 0 0 1 0 0 0];

internalField   nonuniform List<scalar> 
400
(
293.768
295.253
296.677
298.1
299.555
301.005
302.371
303.572
304.548
305.249
305.637
305.678
305.342
304.608
303.476
301.968
300.15
298.13
296.042
293.998
295.356
299.91
304.305
308.733
313.267
317.738
321.855
325.362
328.093
329.947
330.848
330.734
329.552
327.265
323.866
319.417
314.081
308.146
301.995
295.951
297.044
304.823
312.343
319.924
327.622
335.055
341.693
347.16
351.273
353.948
355.135
354.775
352.797
349.119
343.684
336.519
327.826
318.057
307.874
297.862
298.819
309.953
320.724
331.532
342.305
352.369
360.996
367.819
372.767
375.878
377.187
376.673
374.236
369.698
362.849
353.541
341.86
328.338
313.982
299.822
300.659
315.223
329.302
343.285
356.829
368.917
378.738
386.114
391.233
394.351
395.649
395.167
392.776
388.163
380.869
370.392
356.445
339.396
320.613
301.917
302.542
320.569
337.931
354.886
370.671
383.932
393.96
400.973
405.555
408.24
409.377
409.076
407.189
403.285
396.633
386.258
371.215
351.27
327.91
304.187
304.458
325.937
346.474
366.047
383.336
396.737
405.913
411.707
415.172
417.098
417.955
417.904
416.798
414.149
409.036
400.04
385.38
363.687
335.918
306.634
306.402
331.307
354.841
376.512
394.391
406.847
414.254
418.258
420.331
421.395
421.946
422.152
421.89
420.697
417.613
410.948
398.13
376.25
344.696
309.254
308.364
336.605
362.845
386.011
403.528
414.07
419.13
421.193
421.936
422.237
422.528
422.947
423.417
423.57
422.563
418.683
408.84
388.489
354.332
312.059
310.369
341.919
370.591
394.462
410.601
418.528
421.107
421.45
421.14
420.879
420.977
421.534
422.518
423.707
424.485
423.364
417.128
399.879
364.863
315.125
312.392
347.052
377.615
401.52
415.58
420.614
420.971
420.033
419.022
418.414
418.387
418.998
420.255
422.085
424.157
425.392
422.878
409.906
376.186
318.679
314.507
352.262
384.522
407.558
418.782
420.896
419.538
417.817
416.428
415.659
415.564
416.169
417.498
419.587
422.389
425.335
426.213
418.161
388.018
323.244
316.719
357.365
390.315
411.902
420.159
419.892
417.526
415.455
413.93
413.131
413.012
413.592
414.873
416.933
419.945
423.837
427.439
424.394
399.91
329.693
319.172
362.457
396.32
415.647
420.691
418.481
415.564
413.371
411.848
411.077
410.964
411.529
412.751
414.637
417.485
421.562
426.992
428.527
411.309
339.085
321.715
368.071
400.874
417.484
419.798
416.603
413.772
411.753
410.365
409.646
409.54
410.087
411.294
412.992
415.518
419.154
425.406
430.641
421.65
352.215
325.727
373.102
405.91
419.408
419.441
415.844
413.176
411.242
409.916
409.202
409.081
409.52
410.695
412.169
414.393
417.198
423.312
430.963
430.455
369.039
327.372
379.927
409.014
419.101
418.038
414.956
412.835
411.445
410.576
410.093
410.192
410.472
411.504
412.483
414.395
416.218
421.5
429.897
437.396
388.309
335.72
383.966
411.798
420.014
419.834
418.075
416.595
415.345
414.744
414.01
414.063
413.715
414.386
414.412
415.923
416.73
421.139
428.286
442.451
407.885
330.868
388.924
408.543
415.086
417.197
417.066
417.288
416.507
416.865
416.123
416.89
416.268
417.597
417.173
419.464
419.67
424.655
428.497
446.6
425.989
337.908
366.688
382.139
391.133
398.752
403.617
409.16
412.39
417.22
419.419
424.062
425.387
430.228
430.679
436.221
435.728
443.108
441.529
455.199
443.177
)
;

boundaryField
{
    movingWall
    {
        type            fixedValue;
        value           uniform 493;
    }
    fixedWalls
    {
        type            fixedValue;
        value           uniform 293;
    }
    frontAndBack
    {
        type            empty;
    }
}


// ************************************************************************* //
