/*--------------------------------*- C++ -*----------------------------------*\
  =========                 |
  \\      /  F ield         | OpenFOAM: The Open Source CFD Toolbox
   \\    /   O peration     | Website:  https://openfoam.org
    \\  /    A nd           | Version:  8
     \\/     M anipulation  |
\*---------------------------------------------------------------------------*/
FoamFile
{
    version     2.0;
    format      ascii;
    class       volScalarField;
    location    "6";
    object      p;
}
// * * * * * * * * * * * * * * * * * * * * * * * * * * * * * * * * * * * * * //

dimensions      [0 2 -2 0 0 0 0];

internalField   nonuniform List<scalar> 
400
(
4.80334e-07
-0.00582916
-0.0129676
-0.0184202
-0.0204379
-0.0182443
-0.0117798
-0.00148957
0.0118316
0.0271435
0.0432389
0.0588176
0.0725733
0.0833032
0.0900476
0.0922618
0.0900206
0.0842386
0.0768754
0.0710618
0.0057769
-0.000222703
-0.00580883
-0.00954771
-0.0106044
-0.00843832
-0.00297568
0.00546834
0.0162971
0.028706
0.0417442
0.0543805
0.0655811
0.0744046
0.080115
0.0823105
0.0810719
0.0770495
0.0712687
0.0653124
0.0133307
0.00502898
-0.00100024
-0.00442825
-0.00527825
-0.00326944
0.00159667
0.00902181
0.0184963
0.0293435
0.0407598
0.0518642
0.0617631
0.069631
0.0748017
0.0768727
0.0758362
0.0720804
0.0658
0.0575299
0.0201349
0.00869116
0.00122086
-0.00267369
-0.00372742
-0.00189076
0.00272567
0.00977884
0.0187746
0.0290892
0.0399863
0.0506484
0.0602275
0.0679106
0.0729978
0.0749961
0.0737603
0.0694505
0.0615973
0.0500968
0.0244974
0.00976828
0.00058475
-0.00399209
-0.00530753
-0.00351274
0.00116921
0.0083289
0.0174562
0.0279433
0.0390792
0.0500642
0.0600433
0.0681596
0.0736209
0.0757922
0.0743634
0.0692841
0.0595198
0.0445313
0.0251732
0.00714519
-0.00380704
-0.00906238
-0.0105174
-0.00850534
-0.00336226
0.00442387
0.0143077
0.0256732
0.037808
0.0498975
0.0610424
0.0702975
0.0767291
0.0795113
0.0781333
0.0723279
0.0605335
0.0418841
0.0210887
-0.000267249
-0.0129395
-0.0187145
-0.0200351
-0.0174193
-0.0113238
-0.00232516
0.00898487
0.0219705
0.0359039
0.0499386
0.0631064
0.0743396
0.0825162
0.0865639
0.0857151
0.0794414
0.0656146
0.0430659
0.0111379
-0.0136232
-0.0278801
-0.0338594
-0.0346088
-0.0308628
-0.0232182
-0.0123506
0.00109938
0.0164783
0.0330469
0.0499279
0.0660776
0.0802842
0.091195
0.0974244
0.0978647
0.0916304
0.0758906
0.0491107
-0.00597228
-0.0342716
-0.0498751
-0.0555537
-0.0550953
-0.0495199
-0.0395989
-0.0261187
-0.00976253
0.00881754
0.0288955
0.0495879
0.0697919
0.0881489
0.103042
0.112696
0.115545
0.110186
0.0928287
0.0614058
-0.0318624
-0.0638814
-0.0804221
-0.0850123
-0.0824253
-0.0740836
-0.0609862
-0.044042
-0.0239569
-0.00134232
0.0231402
0.0486555
0.0740901
0.0979667
0.11839
0.13312
0.139983
0.136813
0.118435
0.0819283
-0.0686727
-0.104609
-0.12135
-0.123595
-0.117521
-0.105132
-0.0877235
-0.0663308
-0.0416424
-0.014161
0.0156002
0.0469478
0.0788504
0.109788
0.137618
0.15958
0.172721
0.173773
0.155515
0.113565
-0.119408
-0.159362
-0.17492
-0.172762
-0.161153
-0.142934
-0.119764
-0.0927822
-0.0625827
-0.0294529
0.00636783
0.0444682
0.0840499
0.123698
0.161131
0.193081
0.215663
0.224072
0.208045
0.160627
-0.188633
-0.232247
-0.243944
-0.233953
-0.213699
-0.187159
-0.156377
-0.122506
-0.0859029
-0.0464772
-0.00401954
0.0415337
0.0898371
0.139824
0.189314
0.234684
0.27107
0.291659
0.281738
0.229771
-0.283979
-0.329309
-0.331836
-0.308285
-0.274713
-0.236444
-0.195769
-0.153615
-0.109845
-0.0637498
-0.0144426
0.0388587
0.0965496
0.158272
0.222369
0.285283
0.341393
0.38157
0.384909
0.331829
-0.419323
-0.459675
-0.442355
-0.395796
-0.342133
-0.287744
-0.23462
-0.182934
-0.131613
-0.0789891
-0.0232182
0.0374711
0.104549
0.178834
0.259857
0.344966
0.428612
0.499696
0.529671
0.485387
-0.620536
-0.636748
-0.578681
-0.494197
-0.411244
-0.335662
-0.267784
-0.205981
-0.14754
-0.0893866
-0.0284297
0.0383447
0.113803
0.200468
0.299971
0.412021
0.533026
0.651771
0.732768
0.722392
-0.935927
-0.878518
-0.741745
-0.597952
-0.474396
-0.372662
-0.288872
-0.217766
-0.153956
-0.0924671
-0.0287205
0.0416925
0.12326
0.220715
0.338923
0.482151
0.651993
0.841338
1.01527
1.0975
-1.47643
-1.20663
-0.920506
-0.691391
-0.517308
-0.387547
-0.290064
-0.21334
-0.148127
-0.0872185
-0.0245807
0.0454544
0.128934
0.233068
0.3671
0.542675
0.77129
1.05931
1.40328
1.73014
-2.53965
-1.63055
-1.04444
-0.710961
-0.495753
-0.352096
-0.254533
-0.183586
-0.126172
-0.0735981
-0.0192721
0.0427838
0.119209
0.21878
0.354809
0.547981
0.82639
1.23658
1.91167
2.92419
-4.36667
-2.04464
-0.973545
-0.563183
-0.357849
-0.240149
-0.170122
-0.123786
-0.0874841
-0.0535132
-0.0166575
0.0276575
0.0846043
0.161726
0.272408
0.442096
0.718216
1.22571
2.41103
4.84853
)
;

boundaryField
{
    movingWall
    {
        type            zeroGradient;
    }
    fixedWalls
    {
        type            zeroGradient;
    }
    frontAndBack
    {
        type            empty;
    }
}


// ************************************************************************* //
