/*--------------------------------*- C++ -*----------------------------------*\
  =========                 |
  \\      /  F ield         | OpenFOAM: The Open Source CFD Toolbox
   \\    /   O peration     | Website:  https://openfoam.org
    \\  /    A nd           | Version:  8
     \\/     M anipulation  |
\*---------------------------------------------------------------------------*/
FoamFile
{
    version     2.0;
    format      ascii;
    class       volScalarField;
    location    "6";
    object      T;
}
// * * * * * * * * * * * * * * * * * * * * * * * * * * * * * * * * * * * * * //

dimensions      [0 0 0 1 0 0 0];

internalField   nonuniform List<scalar> 
400
(
293.758
295.225
296.634
298.045
299.488
300.927
302.284
303.479
304.449
305.148
305.537
305.58
305.249
304.524
303.401
301.905
300.101
298.095
296.021
293.991
295.327
299.827
304.176
308.565
313.063
317.504
321.594
325.081
327.8
329.649
330.552
330.449
329.285
327.022
323.653
319.238
313.94
308.045
301.935
295.931
296.995
304.684
312.128
319.644
327.284
334.667
341.264
346.701
350.795
353.465
354.659
354.319
352.372
348.735
343.349
336.239
327.606
317.899
307.78
297.831
298.75
309.757
320.423
331.141
341.836
351.831
360.403
367.186
372.111
375.216
376.536
376.052
373.659
369.18
362.401
353.17
341.571
328.131
313.858
299.781
300.569
314.972
328.916
342.785
356.23
368.23
377.981
385.303
390.39
393.497
394.809
394.365
392.034
387.502
380.302
369.927
356.087
339.142
320.462
301.867
302.433
320.262
337.461
354.278
369.94
383.092
393.026
399.966
404.5
407.167
408.317
408.063
406.255
402.456
395.928
385.688
370.781
350.967
327.732
304.129
304.328
325.576
345.92
365.328
382.467
395.729
404.782
410.476
413.87
415.766
416.636
416.641
415.635
413.121
408.169
399.348
384.861
363.331
335.712
306.568
306.251
330.89
354.201
375.677
393.373
405.652
412.897
416.766
418.743
419.761
420.323
420.597
420.459
419.435
416.555
410.111
397.513
375.836
344.459
309.179
308.191
336.128
362.113
385.052
402.345
412.665
417.516
419.403
420.021
420.26
420.558
421.057
421.675
422.036
421.282
417.678
408.11
388.009
354.063
311.975
310.175
341.388
369.77
393.37
409.236
416.886
419.203
419.326
418.86
418.517
418.619
419.267
420.425
421.863
422.946
422.163
416.265
399.323
364.559
315.031
312.171
346.448
376.686
400.28
414.012
418.709
418.747
417.544
416.343
415.634
415.605
416.317
417.775
419.894
422.326
423.966
421.861
409.262
375.842
318.576
314.265
351.612
383.497
406.164
416.994
418.703
416.971
414.941
413.33
412.441
412.338
413.052
414.603
417.02
420.236
423.654
425.019
417.415
387.628
323.129
316.436
356.606
389.157
410.327
418.128
417.397
414.607
412.189
410.413
409.477
409.345
410.038
411.559
413.976
417.448
421.876
426.043
423.53
399.467
329.563
318.878
361.676
395.056
413.896
418.417
415.688
412.308
409.74
407.951
407.033
406.9
407.577
409.044
411.304
414.642
419.306
425.372
427.525
410.803
338.934
321.341
367.115
399.439
415.522
417.27
413.53
410.227
407.834
406.182
405.317
405.188
405.838
407.28
409.345
412.364
416.61
423.551
429.485
421.069
352.035
325.378
372.161
404.368
417.28
416.72
412.584
409.469
407.192
405.629
404.784
404.639
405.166
406.544
408.346
411.025
414.418
421.232
429.641
429.787
368.818
326.844
378.714
407.263
416.786
415.183
411.642
409.162
407.507
406.46
405.882
405.964
406.312
407.497
408.731
411.007
413.331
419.253
428.415
436.632
388.033
335.302
382.837
410.033
417.733
417.134
415.052
413.334
411.917
411.205
410.415
410.456
410.15
410.911
411.099
412.842
413.998
418.888
426.707
441.599
407.545
330.172
387.45
406.701
413.002
414.935
414.682
414.815
413.981
414.301
413.55
414.317
413.727
415.098
414.757
417.153
417.543
422.769
427.033
445.728
425.592
337.61
366.056
381.356
390.272
397.839
402.678
408.2
411.425
416.245
418.451
423.091
424.434
429.278
429.761
435.317
434.883
442.305
440.847
454.612
442.784
)
;

boundaryField
{
    movingWall
    {
        type            fixedValue;
        value           uniform 493;
    }
    fixedWalls
    {
        type            fixedValue;
        value           uniform 293;
    }
    frontAndBack
    {
        type            empty;
    }
}


// ************************************************************************* //
