/*--------------------------------*- C++ -*----------------------------------*\
  =========                 |
  \\      /  F ield         | OpenFOAM: The Open Source CFD Toolbox
   \\    /   O peration     | Website:  https://openfoam.org
    \\  /    A nd           | Version:  8
     \\/     M anipulation  |
\*---------------------------------------------------------------------------*/
FoamFile
{
    version     2.0;
    format      ascii;
    class       volScalarField;
    location    "6.1";
    object      T;
}
// * * * * * * * * * * * * * * * * * * * * * * * * * * * * * * * * * * * * * //

dimensions      [0 0 0 1 0 0 0];

internalField   nonuniform List<scalar> 
400
(
293.76
295.231
296.644
298.057
299.502
300.944
302.303
303.499
304.47
305.17
305.558
305.601
305.269
304.542
303.417
301.919
300.111
298.102
296.026
293.993
295.333
299.845
304.204
308.601
313.107
317.554
321.65
325.141
327.863
329.713
330.616
330.511
329.343
327.074
323.699
319.277
313.97
308.067
301.948
295.935
297.005
304.714
312.174
319.704
327.357
334.751
341.356
346.8
350.898
353.569
354.761
354.417
352.463
348.818
343.421
336.299
327.653
317.933
307.8
297.838
298.765
309.799
320.488
331.225
341.937
351.947
360.53
367.322
372.252
375.358
376.676
376.185
373.783
369.292
362.497
353.249
341.633
328.175
313.885
299.79
300.588
315.027
328.999
342.893
356.359
368.378
378.144
385.478
390.571
393.681
394.989
394.538
392.194
387.644
380.424
370.027
356.164
339.197
320.494
301.878
302.456
320.329
337.562
354.409
370.098
383.272
393.227
400.183
404.727
407.397
408.545
408.281
406.456
402.634
396.079
385.811
370.874
351.032
327.771
304.142
304.356
325.654
346.039
365.483
382.654
395.946
405.025
410.74
414.15
416.052
416.919
416.912
415.885
413.342
408.355
399.497
384.972
363.408
335.756
306.582
306.283
330.98
354.339
375.857
393.592
405.909
413.189
417.086
419.084
420.112
420.672
420.931
420.766
419.707
416.783
410.291
397.646
375.925
344.51
309.195
308.228
336.231
362.271
385.258
402.599
412.967
417.863
419.787
420.432
420.684
420.981
421.463
422.049
422.366
421.557
417.894
408.267
388.112
354.121
311.993
310.217
341.502
369.946
393.605
409.529
417.239
419.612
419.782
419.349
419.024
419.125
419.753
420.875
422.259
423.277
422.421
416.45
399.442
364.625
315.051
312.218
346.578
376.886
400.547
414.349
419.118
419.225
418.078
416.918
416.231
416.202
416.892
418.307
420.364
422.719
424.272
422.08
409.4
375.916
318.598
314.317
351.752
383.717
406.463
417.378
419.174
417.522
415.558
413.995
413.132
413.03
413.721
415.224
417.571
420.698
424.015
425.275
417.576
387.712
323.154
316.497
356.769
389.406
410.665
418.565
417.933
415.234
412.89
411.168
410.261
410.132
410.8
412.27
414.611
417.984
422.297
426.343
423.715
399.562
329.591
318.941
361.844
395.328
414.272
418.905
416.287
413.007
410.519
408.787
407.9
407.771
408.425
409.839
412.019
415.252
419.791
425.72
427.741
410.911
338.966
321.421
367.321
399.747
415.943
417.812
414.189
410.987
408.675
407.079
406.245
406.121
406.749
408.141
410.127
413.041
417.156
423.949
429.734
421.194
352.074
325.453
372.363
404.7
417.737
417.304
413.283
410.264
408.061
406.548
405.731
405.591
406.099
407.434
409.166
411.747
415.015
421.678
429.925
429.93
368.866
326.958
378.975
407.639
417.283
415.796
412.353
409.95
408.352
407.343
406.785
406.871
407.204
408.357
409.536
411.734
413.951
419.735
428.733
436.796
388.093
335.392
383.08
410.412
418.222
417.713
415.7
414.033
412.652
411.964
411.186
411.23
410.914
411.657
411.81
413.503
414.584
419.371
427.046
441.782
407.618
330.321
387.767
407.097
413.449
415.421
415.194
415.346
414.523
414.852
414.102
414.869
414.272
415.634
415.276
417.649
417.999
423.174
427.347
445.915
425.677
337.674
366.192
381.524
390.457
398.035
402.88
408.406
411.632
416.454
418.659
423.3
424.639
429.482
429.958
435.511
435.064
442.477
440.993
454.738
442.868
)
;

boundaryField
{
    movingWall
    {
        type            fixedValue;
        value           uniform 493;
    }
    fixedWalls
    {
        type            fixedValue;
        value           uniform 293;
    }
    frontAndBack
    {
        type            empty;
    }
}


// ************************************************************************* //
