/*--------------------------------*- C++ -*----------------------------------*\
  =========                 |
  \\      /  F ield         | OpenFOAM: The Open Source CFD Toolbox
   \\    /   O peration     | Website:  https://openfoam.org
    \\  /    A nd           | Version:  8
     \\/     M anipulation  |
\*---------------------------------------------------------------------------*/
FoamFile
{
    version     2.0;
    format      ascii;
    class       volScalarField;
    location    "5.9";
    object      p;
}
// * * * * * * * * * * * * * * * * * * * * * * * * * * * * * * * * * * * * * //

dimensions      [0 2 -2 0 0 0 0];

internalField   nonuniform List<scalar> 
400
(
5.01157e-07
-0.00582912
-0.0129676
-0.0184201
-0.0204379
-0.0182443
-0.0117798
-0.00148955
0.0118316
0.0271436
0.043239
0.0588177
0.0725734
0.0833033
0.0900476
0.0922618
0.0900206
0.0842387
0.0768754
0.0710619
0.00577694
-0.00022267
-0.0058088
-0.00954767
-0.0106043
-0.00843827
-0.00297563
0.00546837
0.0162971
0.0287061
0.0417443
0.0543806
0.0655811
0.0744047
0.080115
0.0823105
0.081072
0.0770495
0.0712688
0.0653125
0.0133307
0.00502901
-0.00100021
-0.00442822
-0.00527821
-0.00326938
0.00159674
0.00902186
0.0184963
0.0293436
0.0407598
0.0518642
0.0617632
0.0696311
0.0748017
0.0768728
0.0758362
0.0720804
0.0658
0.05753
0.0201349
0.00869121
0.00122089
-0.00267367
-0.0037274
-0.00189072
0.00272573
0.0097789
0.0187746
0.0290893
0.0399863
0.0506484
0.0602275
0.0679106
0.0729979
0.0749961
0.0737604
0.0694506
0.0615974
0.0500969
0.0244974
0.00976834
0.000584793
-0.00399206
-0.00530751
-0.00351272
0.00116925
0.00832897
0.0174563
0.0279433
0.0390792
0.0500642
0.0600433
0.0681596
0.0736209
0.0757923
0.0743635
0.0692842
0.0595199
0.0445313
0.0251733
0.00714525
-0.00380699
-0.00906233
-0.0105174
-0.00850533
-0.00336224
0.00442391
0.0143077
0.0256733
0.0378081
0.0498976
0.0610424
0.0702975
0.0767291
0.0795114
0.0781334
0.0723279
0.0605335
0.0418842
0.0210887
-0.000267204
-0.0129395
-0.0187144
-0.020035
-0.0174192
-0.0113238
-0.00232514
0.00898492
0.0219706
0.035904
0.0499386
0.0631064
0.0743396
0.0825162
0.0865639
0.0857151
0.0794415
0.0656147
0.0430659
0.0111379
-0.0136231
-0.02788
-0.0338593
-0.0346087
-0.0308628
-0.0232182
-0.0123506
0.0010994
0.0164784
0.033047
0.049928
0.0660777
0.0802842
0.0911951
0.0974244
0.0978647
0.0916305
0.0758907
0.0491108
-0.00597226
-0.0342716
-0.0498751
-0.0555537
-0.0550953
-0.0495198
-0.0395988
-0.0261187
-0.00976252
0.00881756
0.0288955
0.049588
0.0697919
0.088149
0.103042
0.112696
0.115545
0.110186
0.0928287
0.0614058
-0.0318624
-0.0638813
-0.0804221
-0.0850123
-0.0824252
-0.0740835
-0.0609862
-0.044042
-0.0239569
-0.00134231
0.0231402
0.0486556
0.0740902
0.0979668
0.11839
0.13312
0.139983
0.136813
0.118435
0.0819283
-0.0686726
-0.104609
-0.12135
-0.123595
-0.117521
-0.105132
-0.0877235
-0.0663308
-0.0416423
-0.014161
0.0156002
0.0469478
0.0788504
0.109788
0.137618
0.15958
0.172722
0.173773
0.155515
0.113565
-0.119408
-0.159362
-0.17492
-0.172762
-0.161153
-0.142934
-0.119764
-0.0927821
-0.0625826
-0.0294529
0.00636786
0.0444682
0.0840499
0.123698
0.161131
0.193081
0.215663
0.224072
0.208045
0.160627
-0.188633
-0.232247
-0.243944
-0.233953
-0.213699
-0.187159
-0.156377
-0.122506
-0.0859028
-0.0464772
-0.00401949
0.0415338
0.0898371
0.139824
0.189314
0.234684
0.27107
0.291659
0.281738
0.229771
-0.283979
-0.329309
-0.331836
-0.308285
-0.274713
-0.236444
-0.195769
-0.153615
-0.109845
-0.0637498
-0.0144425
0.0388588
0.0965496
0.158272
0.22237
0.285283
0.341393
0.38157
0.384909
0.331829
-0.419323
-0.459675
-0.442355
-0.395796
-0.342133
-0.287744
-0.23462
-0.182934
-0.131613
-0.078989
-0.0232181
0.0374712
0.104549
0.178834
0.259857
0.344966
0.428612
0.499696
0.529671
0.485387
-0.620536
-0.636748
-0.578681
-0.494197
-0.411244
-0.335662
-0.267784
-0.205981
-0.14754
-0.0893865
-0.0284296
0.0383447
0.113803
0.200468
0.299971
0.412021
0.533026
0.651771
0.732768
0.722392
-0.935927
-0.878518
-0.741745
-0.597952
-0.474396
-0.372662
-0.288872
-0.217766
-0.153956
-0.0924671
-0.0287205
0.0416925
0.12326
0.220715
0.338923
0.482151
0.651993
0.841338
1.01527
1.0975
-1.47643
-1.20663
-0.920506
-0.691391
-0.517308
-0.387547
-0.290064
-0.21334
-0.148127
-0.0872185
-0.0245806
0.0454544
0.128934
0.233068
0.3671
0.542675
0.77129
1.05931
1.40328
1.73014
-2.53965
-1.63055
-1.04444
-0.710961
-0.495753
-0.352096
-0.254533
-0.183586
-0.126172
-0.0735981
-0.0192721
0.0427838
0.119209
0.21878
0.354809
0.547981
0.82639
1.23658
1.91167
2.92419
-4.36667
-2.04464
-0.973545
-0.563183
-0.357849
-0.240149
-0.170122
-0.123786
-0.0874841
-0.0535132
-0.0166575
0.0276575
0.0846043
0.161726
0.272408
0.442096
0.718216
1.22571
2.41103
4.84853
)
;

boundaryField
{
    movingWall
    {
        type            zeroGradient;
    }
    fixedWalls
    {
        type            zeroGradient;
    }
    frontAndBack
    {
        type            empty;
    }
}


// ************************************************************************* //
