/*--------------------------------*- C++ -*----------------------------------*\
  =========                 |
  \\      /  F ield         | OpenFOAM: The Open Source CFD Toolbox
   \\    /   O peration     | Website:  https://openfoam.org
    \\  /    A nd           | Version:  8
     \\/     M anipulation  |
\*---------------------------------------------------------------------------*/
FoamFile
{
    version     2.0;
    format      ascii;
    class       volScalarField;
    location    "5.9";
    object      T;
}
// * * * * * * * * * * * * * * * * * * * * * * * * * * * * * * * * * * * * * //

dimensions      [0 0 0 1 0 0 0];

internalField   nonuniform List<scalar> 
400
(
293.756
295.219
296.625
298.032
299.472
300.91
302.265
303.458
304.427
305.125
305.514
305.558
305.228
304.505
303.384
301.891
300.09
298.087
296.017
293.99
295.32
299.808
304.147
308.527
313.018
317.451
321.536
325.018
327.735
329.582
330.487
330.386
329.226
326.967
323.605
319.198
313.908
308.022
301.921
295.926
296.984
304.652
312.079
319.581
327.209
334.581
341.168
346.598
350.688
353.357
354.553
354.217
352.277
348.649
343.274
336.176
327.556
317.864
307.759
297.824
298.734
309.713
320.355
331.054
341.731
351.711
360.27
367.044
371.964
375.068
376.391
375.913
373.53
369.065
362.301
353.087
341.506
328.084
313.83
299.772
300.549
314.916
328.829
342.673
356.096
368.077
377.812
385.122
390.202
393.307
394.622
394.187
391.869
387.354
380.175
369.824
356.007
339.086
320.428
301.856
302.408
320.194
337.355
354.142
369.777
382.904
392.818
399.742
404.265
406.927
408.081
407.837
406.047
402.271
395.771
385.561
370.684
350.899
327.692
304.116
304.298
325.494
345.795
365.167
382.272
395.504
404.53
410.201
413.58
415.469
416.342
416.36
415.376
412.892
407.976
399.193
384.745
363.252
335.666
306.553
306.217
330.796
354.058
375.49
393.146
405.386
412.595
416.433
418.389
419.398
419.962
420.251
420.14
419.154
416.32
409.925
397.376
375.743
344.406
309.162
308.152
336.021
361.95
384.838
402.082
412.352
417.157
419.005
419.594
419.819
420.119
420.637
421.287
421.695
420.996
417.454
407.947
387.902
354.003
311.957
310.131
341.269
369.586
393.127
408.932
416.52
418.779
418.853
418.352
417.991
418.094
418.762
419.96
421.452
422.604
421.895
416.073
399.199
364.491
315.011
312.121
346.312
376.479
400.004
413.663
418.284
418.252
416.99
415.747
415.016
414.987
415.721
417.223
419.406
421.919
423.648
421.635
409.119
375.766
318.553
314.211
351.466
383.268
405.853
416.595
418.215
416.4
414.302
412.641
411.726
411.621
412.359
413.96
416.449
419.757
423.279
424.753
417.249
387.541
323.103
316.373
356.436
388.898
409.976
417.676
416.842
413.958
411.463
409.632
408.665
408.53
409.248
410.822
413.318
416.893
421.439
425.732
423.337
399.368
329.534
318.812
361.502
394.774
413.506
417.911
415.066
411.584
408.934
407.085
406.134
405.997
406.699
408.22
410.563
414.01
418.804
425.012
427.302
410.69
338.9
321.257
366.901
399.119
415.085
416.707
412.846
409.439
406.963
405.253
404.356
404.221
404.895
406.388
408.534
411.663
416.045
423.138
429.228
420.94
351.995
325.3
371.95
404.025
416.806
416.115
411.859
408.645
406.293
404.677
403.802
403.652
404.199
405.622
407.497
410.276
413.8
420.769
429.346
429.638
368.769
326.726
378.444
406.873
416.271
414.548
410.905
408.346
406.632
405.545
404.946
405.025
405.388
406.607
407.897
410.254
412.689
418.753
428.085
436.462
387.972
335.208
382.585
409.64
417.225
416.533
414.379
412.609
411.155
410.418
409.615
409.654
409.357
410.139
410.362
412.157
413.39
418.387
426.356
441.409
407.469
330.016
387.121
406.291
412.537
414.432
414.151
414.265
413.418
413.73
412.977
413.745
413.161
414.542
414.22
416.639
417.069
422.349
426.707
445.534
425.503
337.543
365.915
381.181
390.08
397.635
402.469
407.986
411.209
416.027
418.235
422.875
424.221
429.067
429.556
435.116
434.694
442.126
440.695
454.481
442.696
)
;

boundaryField
{
    movingWall
    {
        type            fixedValue;
        value           uniform 493;
    }
    fixedWalls
    {
        type            fixedValue;
        value           uniform 293;
    }
    frontAndBack
    {
        type            empty;
    }
}


// ************************************************************************* //
