/*--------------------------------*- C++ -*----------------------------------*\
  =========                 |
  \\      /  F ield         | OpenFOAM: The Open Source CFD Toolbox
   \\    /   O peration     | Website:  https://openfoam.org
    \\  /    A nd           | Version:  8
     \\/     M anipulation  |
\*---------------------------------------------------------------------------*/
FoamFile
{
    version     2.0;
    format      ascii;
    class       volScalarField;
    location    "5.1";
    object      p;
}
// * * * * * * * * * * * * * * * * * * * * * * * * * * * * * * * * * * * * * //

dimensions      [0 2 -2 0 0 0 0];

internalField   nonuniform List<scalar> 
400
(
6.82827e-07
-0.00582883
-0.0129673
-0.0184198
-0.0204375
-0.0182439
-0.0117794
-0.00148916
0.0118319
0.0271438
0.0432392
0.058818
0.0725738
0.0833037
0.0900481
0.0922622
0.090021
0.0842389
0.0768756
0.071062
0.00577726
-0.000222326
-0.00580847
-0.00954738
-0.010604
-0.00843794
-0.00297524
0.0054688
0.0162976
0.0287064
0.0417446
0.0543808
0.0655814
0.074405
0.0801154
0.0823109
0.0810724
0.0770499
0.0712691
0.0653127
0.013331
0.00502939
-0.000999845
-0.0044279
-0.00527795
-0.00326913
0.00159705
0.00902225
0.0184967
0.029344
0.0407602
0.0518645
0.0617634
0.0696313
0.074802
0.0768731
0.0758367
0.0720809
0.0658004
0.0575303
0.0201352
0.00869158
0.0012213
-0.00267329
-0.00372709
-0.00189048
0.00272597
0.00977921
0.018775
0.0290897
0.0399867
0.0506488
0.0602278
0.0679108
0.0729981
0.0749964
0.0737607
0.069451
0.0615978
0.0500972
0.0244977
0.00976867
0.000585198
-0.00399163
-0.00530712
-0.00351242
0.00116948
0.00832919
0.0174566
0.0279437
0.0390797
0.0500647
0.0600437
0.0681599
0.0736212
0.0757925
0.0743638
0.0692846
0.0595203
0.0445317
0.0251735
0.00714553
-0.00380664
-0.0090619
-0.010517
-0.00850494
-0.00336195
0.00442412
0.014308
0.0256736
0.0378085
0.049898
0.0610429
0.0702979
0.0767294
0.0795116
0.0781336
0.0723282
0.0605339
0.0418846
0.0210891
-0.000266944
-0.0129392
-0.0187141
-0.0200346
-0.0174188
-0.0113234
-0.00232486
0.00898512
0.0219708
0.0359043
0.049939
0.0631069
0.0743401
0.0825167
0.0865642
0.0857154
0.0794417
0.065615
0.0430663
0.0111383
-0.0136229
-0.0278798
-0.033859
-0.0346083
-0.0308623
-0.0232177
-0.0123502
0.00109968
0.0164786
0.0330472
0.0499283
0.0660781
0.0802847
0.0911955
0.0974248
0.097865
0.0916307
0.0758909
0.0491111
-0.00597181
-0.0342712
-0.0498749
-0.0555535
-0.055095
-0.0495194
-0.0395983
-0.0261182
-0.00976212
0.00881785
0.0288957
0.0495882
0.0697922
0.0881493
0.103042
0.112696
0.115545
0.110187
0.092829
0.0614061
-0.0318619
-0.0638809
-0.0804218
-0.0850121
-0.082425
-0.0740832
-0.0609858
-0.0440415
-0.0239564
-0.0013419
0.0231405
0.0486558
0.0740904
0.0979671
0.118391
0.133121
0.139983
0.136813
0.118436
0.0819286
-0.0686722
-0.104608
-0.121349
-0.123595
-0.11752
-0.105132
-0.0877232
-0.0663304
-0.0416419
-0.0141605
0.0156006
0.0469482
0.0788507
0.109788
0.137619
0.159581
0.172722
0.173773
0.155516
0.113566
-0.119407
-0.159362
-0.17492
-0.172762
-0.161153
-0.142934
-0.119764
-0.0927819
-0.0625823
-0.0294524
0.00636832
0.0444687
0.0840503
0.123698
0.161131
0.193081
0.215663
0.224072
0.208046
0.160628
-0.188633
-0.232247
-0.243943
-0.233952
-0.213699
-0.187159
-0.156377
-0.122506
-0.0859026
-0.0464768
-0.00401908
0.0415342
0.0898375
0.139825
0.189314
0.234685
0.27107
0.29166
0.281738
0.229771
-0.283979
-0.329309
-0.331836
-0.308284
-0.274713
-0.236444
-0.195769
-0.153614
-0.109844
-0.0637495
-0.0144422
0.0388591
0.09655
0.158272
0.22237
0.285284
0.341393
0.381571
0.38491
0.33183
-0.419323
-0.459675
-0.442354
-0.395796
-0.342133
-0.287743
-0.234619
-0.182934
-0.131613
-0.0789888
-0.0232178
0.0374715
0.104549
0.178834
0.259857
0.344966
0.428612
0.499696
0.529671
0.485388
-0.620535
-0.636747
-0.57868
-0.494196
-0.411244
-0.335661
-0.267783
-0.205981
-0.14754
-0.0893862
-0.0284293
0.038345
0.113804
0.200468
0.299972
0.412022
0.533026
0.651772
0.732768
0.722392
-0.935927
-0.878518
-0.741744
-0.597951
-0.474396
-0.372662
-0.288871
-0.217765
-0.153956
-0.0924667
-0.0287201
0.0416928
0.123261
0.220715
0.338923
0.482152
0.651994
0.841339
1.01527
1.0975
-1.47643
-1.20663
-0.920506
-0.69139
-0.517307
-0.387546
-0.290064
-0.21334
-0.148126
-0.0872181
-0.0245803
0.0454548
0.128935
0.233068
0.3671
0.542675
0.77129
1.05932
1.40328
1.73014
-2.53965
-1.63055
-1.04444
-0.710961
-0.495753
-0.352095
-0.254533
-0.183586
-0.126172
-0.0735977
-0.0192717
0.0427842
0.11921
0.21878
0.354809
0.547981
0.82639
1.23658
1.91167
2.92419
-4.36667
-2.04464
-0.973544
-0.563183
-0.357848
-0.240149
-0.170122
-0.123785
-0.0874838
-0.0535129
-0.0166572
0.0276579
0.0846047
0.161727
0.272408
0.442096
0.718216
1.22571
2.41103
4.84853
)
;

boundaryField
{
    movingWall
    {
        type            zeroGradient;
    }
    fixedWalls
    {
        type            zeroGradient;
    }
    frontAndBack
    {
        type            empty;
    }
}


// ************************************************************************* //
