/*--------------------------------*- C++ -*----------------------------------*\
  =========                 |
  \\      /  F ield         | OpenFOAM: The Open Source CFD Toolbox
   \\    /   O peration     | Website:  https://openfoam.org
    \\  /    A nd           | Version:  8
     \\/     M anipulation  |
\*---------------------------------------------------------------------------*/
FoamFile
{
    version     2.0;
    format      ascii;
    class       volScalarField;
    location    "5.1";
    object      T;
}
// * * * * * * * * * * * * * * * * * * * * * * * * * * * * * * * * * * * * * //

dimensions      [0 0 0 1 0 0 0];

internalField   nonuniform List<scalar> 
400
(
293.735
295.158
296.531
297.911
299.327
300.742
302.078
303.256
304.215
304.909
305.298
305.348
305.03
304.323
303.224
301.756
299.983
298.01
295.971
293.975
295.256
299.625
303.865
308.161
312.578
316.946
320.976
324.417
327.107
328.944
329.855
329.777
328.654
326.447
323.148
318.815
313.605
307.804
301.791
295.883
296.875
304.346
311.608
318.973
326.481
333.747
340.248
345.615
349.668
352.327
353.539
353.245
351.37
347.829
342.558
335.578
327.085
317.526
307.556
297.757
298.582
309.285
319.699
330.209
340.723
350.56
359.005
365.695
370.567
373.659
375.008
374.591
372.305
367.964
361.348
352.297
340.889
327.643
313.566
299.685
300.353
314.367
327.992
341.597
354.812
366.613
376.2
383.4
388.412
391.497
392.842
392.488
390.298
385.952
378.973
368.838
355.245
338.546
320.107
301.751
302.168
319.527
336.339
352.836
368.216
381.116
390.837
397.609
402.033
404.657
405.84
405.697
404.072
400.517
394.279
384.354
369.765
350.257
327.314
303.993
304.015
324.709
344.599
363.627
380.422
393.367
402.137
407.598
410.832
412.657
413.557
413.696
412.921
410.721
406.143
397.728
383.647
362.498
335.227
306.412
305.889
329.893
352.681
373.709
390.984
402.858
409.729
413.285
415.042
415.956
416.542
416.975
417.121
416.492
414.086
408.157
396.072
374.866
343.905
309.002
307.777
334.993
360.382
382.797
399.577
409.383
413.752
415.234
415.563
415.658
415.975
416.659
417.62
418.463
418.294
415.333
406.404
386.886
353.434
311.779
309.71
340.125
367.83
390.81
406.046
413.055
414.769
414.386
413.557
413.028
413.139
413.997
415.559
417.571
419.362
419.362
414.252
398.023
363.847
314.813
311.644
345.014
374.498
397.377
410.353
414.269
413.575
411.761
410.122
409.182
409.15
410.095
412.014
414.801
418.066
420.642
419.489
407.758
375.038
318.334
313.69
350.072
381.085
402.903
412.825
413.603
411.01
408.268
406.145
404.981
404.861
405.825
407.889
411.059
415.23
419.739
422.234
415.674
386.716
322.86
315.767
354.811
386.435
406.647
413.4
411.599
407.835
404.618
402.27
401.021
400.856
401.808
403.877
407.117
411.648
417.313
422.789
421.512
398.43
329.259
318.182
359.834
392.092
409.813
413.128
409.202
404.76
401.336
398.936
397.681
397.503
398.436
400.463
403.581
408.047
414.063
421.601
425.189
409.619
338.582
320.456
364.862
396.079
410.948
411.394
406.401
402.016
398.768
396.514
395.316
395.133
396.02
397.998
400.902
405.053
410.704
419.235
426.79
419.712
351.614
324.554
369.946
400.765
412.327
410.403
405.026
400.888
397.828
395.724
394.579
394.38
395.107
396.95
399.502
403.221
407.967
416.394
426.559
428.228
368.301
325.601
375.866
403.174
411.401
408.554
403.961
400.658
398.397
396.944
396.148
396.193
396.695
398.23
400.047
403.157
406.634
414.031
424.965
434.849
387.388
334.317
380.191
405.917
412.427
410.864
408.04
405.775
403.975
403.008
402.089
402.104
401.894
402.863
403.42
405.696
407.655
413.655
423.031
439.61
406.751
328.535
383.992
402.396
408.139
409.666
409.133
409.062
408.105
408.34
407.569
408.338
407.821
409.288
409.143
411.782
412.594
418.379
423.623
443.692
424.663
336.908
364.571
379.518
388.253
395.7
400.481
405.953
409.167
413.966
416.189
420.824
422.207
427.061
427.617
433.208
432.909
440.428
439.253
453.238
441.863
)
;

boundaryField
{
    movingWall
    {
        type            fixedValue;
        value           uniform 493;
    }
    fixedWalls
    {
        type            fixedValue;
        value           uniform 293;
    }
    frontAndBack
    {
        type            empty;
    }
}


// ************************************************************************* //
