/*--------------------------------*- C++ -*----------------------------------*\
  =========                 |
  \\      /  F ield         | OpenFOAM: The Open Source CFD Toolbox
   \\    /   O peration     | Website:  https://openfoam.org
    \\  /    A nd           | Version:  8
     \\/     M anipulation  |
\*---------------------------------------------------------------------------*/
FoamFile
{
    version     2.0;
    format      ascii;
    class       volScalarField;
    location    "5.4";
    object      p;
}
// * * * * * * * * * * * * * * * * * * * * * * * * * * * * * * * * * * * * * //

dimensions      [0 2 -2 0 0 0 0];

internalField   nonuniform List<scalar> 
400
(
6.06395e-07
-0.00582894
-0.0129674
-0.0184199
-0.0204377
-0.0182441
-0.0117796
-0.0014893
0.0118319
0.0271438
0.0432391
0.0588178
0.0725735
0.0833035
0.0900479
0.0922621
0.0900209
0.0842389
0.0768756
0.071062
0.00577712
-0.000222466
-0.00580859
-0.00954748
-0.0106041
-0.00843811
-0.00297545
0.00546859
0.0162974
0.0287063
0.0417445
0.0543808
0.0655813
0.0744049
0.0801152
0.0823107
0.0810722
0.0770497
0.071269
0.0653127
0.0133309
0.00502922
-0.000999988
-0.004428
-0.00527802
-0.00326923
0.00159688
0.00902203
0.0184965
0.0293438
0.0407601
0.0518644
0.0617634
0.0696312
0.0748019
0.0768729
0.0758365
0.0720807
0.0658002
0.0575302
0.0201351
0.00869139
0.00122111
-0.00267343
-0.00372717
-0.00189053
0.00272588
0.00977904
0.0187748
0.0290895
0.0399865
0.0506487
0.0602277
0.0679108
0.072998
0.0749963
0.0737605
0.0694508
0.0615976
0.0500971
0.0244976
0.0097685
0.000584985
-0.00399183
-0.00530726
-0.00351248
0.00116944
0.0083291
0.0174564
0.0279435
0.0390795
0.0500645
0.0600436
0.0681598
0.0736211
0.0757924
0.0743636
0.0692844
0.0595201
0.0445315
0.0251735
0.00714541
-0.00380683
-0.00906214
-0.0105172
-0.00850507
-0.00336201
0.00442409
0.0143079
0.0256734
0.0378082
0.0498978
0.0610427
0.0702978
0.0767293
0.0795115
0.0781335
0.0723281
0.0605337
0.0418844
0.021089
-0.000267026
-0.0129393
-0.0187143
-0.0200348
-0.017419
-0.0113235
-0.0023249
0.00898509
0.0219707
0.0359041
0.0499388
0.0631067
0.0743398
0.0825165
0.0865641
0.0857153
0.0794417
0.0656149
0.0430661
0.0111381
-0.0136229
-0.0278799
-0.0338592
-0.0346085
-0.0308626
-0.023218
-0.0123503
0.00109964
0.0164786
0.0330471
0.0499281
0.0660779
0.0802844
0.0911953
0.0974247
0.0978649
0.0916307
0.0758908
0.049111
-0.00597202
-0.0342713
-0.0498749
-0.0555535
-0.0550951
-0.0495197
-0.0395986
-0.0261184
-0.00976225
0.00881779
0.0288957
0.0495881
0.0697921
0.0881491
0.103042
0.112696
0.115545
0.110187
0.0928289
0.061406
-0.0318622
-0.0638811
-0.0804218
-0.0850121
-0.0824251
-0.0740834
-0.060986
-0.0440418
-0.0239566
-0.00134204
0.0231404
0.0486558
0.0740903
0.0979669
0.118391
0.13312
0.139983
0.136813
0.118435
0.0819285
-0.0686725
-0.104608
-0.121349
-0.123595
-0.11752
-0.105132
-0.0877233
-0.0663306
-0.0416421
-0.0141607
0.0156005
0.0469481
0.0788506
0.109788
0.137619
0.15958
0.172722
0.173773
0.155515
0.113566
-0.119407
-0.159362
-0.17492
-0.172762
-0.161153
-0.142934
-0.119764
-0.092782
-0.0625825
-0.0294527
0.00636809
0.0444685
0.0840501
0.123698
0.161131
0.193081
0.215663
0.224072
0.208046
0.160628
-0.188633
-0.232247
-0.243943
-0.233953
-0.213699
-0.187159
-0.156377
-0.122506
-0.0859027
-0.046477
-0.00401931
0.041534
0.0898373
0.139825
0.189314
0.234684
0.27107
0.29166
0.281738
0.229771
-0.283979
-0.329309
-0.331836
-0.308284
-0.274713
-0.236444
-0.195769
-0.153614
-0.109844
-0.0637496
-0.0144424
0.0388589
0.0965498
0.158272
0.22237
0.285284
0.341393
0.381571
0.38491
0.33183
-0.419323
-0.459675
-0.442355
-0.395796
-0.342133
-0.287743
-0.23462
-0.182934
-0.131613
-0.0789888
-0.0232179
0.0374713
0.104549
0.178834
0.259857
0.344966
0.428612
0.499696
0.529671
0.485387
-0.620535
-0.636747
-0.578681
-0.494196
-0.411244
-0.335662
-0.267784
-0.205981
-0.14754
-0.0893863
-0.0284294
0.0383449
0.113803
0.200468
0.299972
0.412022
0.533026
0.651772
0.732768
0.722392
-0.935927
-0.878518
-0.741744
-0.597951
-0.474396
-0.372662
-0.288871
-0.217766
-0.153956
-0.0924668
-0.0287203
0.0416927
0.12326
0.220715
0.338923
0.482152
0.651994
0.841339
1.01527
1.0975
-1.47643
-1.20663
-0.920506
-0.69139
-0.517307
-0.387546
-0.290064
-0.21334
-0.148127
-0.0872183
-0.0245804
0.0454547
0.128935
0.233068
0.3671
0.542675
0.77129
1.05931
1.40328
1.73014
-2.53965
-1.63055
-1.04444
-0.710961
-0.495753
-0.352096
-0.254533
-0.183586
-0.126172
-0.0735979
-0.0192719
0.042784
0.119209
0.21878
0.354809
0.547981
0.82639
1.23658
1.91167
2.92419
-4.36667
-2.04464
-0.973545
-0.563183
-0.357849
-0.240149
-0.170122
-0.123785
-0.0874839
-0.053513
-0.0166573
0.0276577
0.0846045
0.161727
0.272408
0.442096
0.718216
1.22571
2.41103
4.84853
)
;

boundaryField
{
    movingWall
    {
        type            zeroGradient;
    }
    fixedWalls
    {
        type            zeroGradient;
    }
    frontAndBack
    {
        type            empty;
    }
}


// ************************************************************************* //
