/*--------------------------------*- C++ -*----------------------------------*\
  =========                 |
  \\      /  F ield         | OpenFOAM: The Open Source CFD Toolbox
   \\    /   O peration     | Website:  https://openfoam.org
    \\  /    A nd           | Version:  8
     \\/     M anipulation  |
\*---------------------------------------------------------------------------*/
FoamFile
{
    version     2.0;
    format      ascii;
    class       volScalarField;
    location    "5.4";
    object      T;
}
// * * * * * * * * * * * * * * * * * * * * * * * * * * * * * * * * * * * * * //

dimensions      [0 0 0 1 0 0 0];

internalField   nonuniform List<scalar> 
400
(
293.744
295.184
296.57
297.961
299.387
300.811
302.155
303.339
304.303
304.998
305.387
305.435
305.112
304.398
303.29
301.812
300.027
298.042
295.99
293.981
295.283
299.702
303.982
308.313
312.76
317.155
321.207
324.665
327.366
329.207
330.116
330.028
328.89
326.662
323.337
318.973
313.73
307.895
301.845
295.901
296.921
304.474
311.804
319.225
326.782
334.092
340.628
346.02
350.089
352.752
353.956
353.645
351.744
348.167
342.853
335.825
327.28
317.665
307.64
297.784
298.645
309.463
319.971
330.559
341.14
351.035
359.526
366.251
371.142
374.239
375.577
375.135
372.809
368.417
361.74
352.622
341.143
327.825
313.675
299.721
300.435
314.596
328.339
342.042
355.342
367.216
376.863
384.108
389.148
392.241
393.573
393.186
390.943
386.528
379.467
369.243
355.558
338.768
320.239
301.794
302.268
319.804
336.76
353.375
368.859
381.852
391.651
398.485
402.949
405.589
406.76
406.575
404.882
401.237
394.892
384.85
370.143
350.521
327.47
304.044
304.133
325.035
345.094
364.262
381.184
394.245
403.119
408.666
411.959
413.81
414.699
414.788
413.928
411.611
406.895
398.329
384.098
362.808
335.407
306.47
306.025
330.268
353.25
374.443
391.872
403.896
410.905
414.576
416.414
417.366
417.944
418.317
418.358
417.583
415.002
408.882
396.607
375.226
344.111
309.068
307.933
335.419
361.029
383.637
400.605
410.601
415.148
416.779
417.214
417.362
417.672
418.288
419.122
419.787
419.402
416.203
407.037
387.303
353.668
311.852
309.885
340.598
368.554
391.762
407.231
414.476
416.412
416.215
415.52
415.06
415.167
415.947
417.361
419.16
420.69
420.401
414.999
398.506
364.112
314.894
311.841
345.55
375.314
398.456
411.711
415.914
415.49
413.901
412.423
411.568
411.538
412.396
414.146
416.686
419.644
421.873
420.369
408.317
375.337
318.424
313.905
350.648
381.983
404.114
414.371
415.492
413.216
410.736
408.801
407.738
407.624
408.496
410.371
413.264
417.083
421.189
423.266
416.32
387.055
322.96
316.018
355.481
387.448
408.012
415.152
413.745
410.339
407.416
405.278
404.144
403.991
404.848
406.715
409.653
413.794
419.003
423.995
422.26
398.815
329.372
318.442
360.521
393.194
411.327
415.086
411.601
407.549
404.44
402.264
401.132
400.971
401.81
403.632
406.435
410.486
416.004
422.998
426.055
410.058
338.713
320.786
365.702
397.327
412.643
413.568
409.036
405.049
402.115
400.082
399.005
398.842
399.642
401.423
404.02
407.755
412.889
420.833
427.789
420.216
351.77
324.862
370.771
402.102
414.162
412.74
407.819
404.057
401.284
399.378
398.343
398.164
398.818
400.49
402.767
406.104
410.353
418.185
427.701
428.806
368.493
326.064
376.926
404.692
413.396
411.006
406.799
403.799
401.76
400.456
399.74
399.799
400.244
401.651
403.254
406.057
409.11
415.964
426.243
435.51
387.628
334.684
381.175
407.443
414.391
413.183
410.632
408.568
406.909
406.036
405.164
405.188
404.943
405.836
406.257
408.338
410.001
415.592
424.393
440.348
407.045
329.144
385.278
403.995
409.942
411.619
411.188
411.192
410.28
410.546
409.782
410.551
410.006
411.438
411.221
413.77
414.427
420.005
424.887
444.447
425.008
337.169
365.124
380.201
389.004
396.495
401.297
406.788
410.005
414.812
417.028
421.665
423.033
427.884
428.412
433.991
433.641
441.124
439.844
453.748
442.205
)
;

boundaryField
{
    movingWall
    {
        type            fixedValue;
        value           uniform 493;
    }
    fixedWalls
    {
        type            fixedValue;
        value           uniform 293;
    }
    frontAndBack
    {
        type            empty;
    }
}


// ************************************************************************* //
