/*--------------------------------*- C++ -*----------------------------------*\
  =========                 |
  \\      /  F ield         | OpenFOAM: The Open Source CFD Toolbox
   \\    /   O peration     | Website:  https://openfoam.org
    \\  /    A nd           | Version:  8
     \\/     M anipulation  |
\*---------------------------------------------------------------------------*/
FoamFile
{
    version     2.0;
    format      ascii;
    class       volScalarField;
    location    "1.5";
    object      T;
}
// * * * * * * * * * * * * * * * * * * * * * * * * * * * * * * * * * * * * * //

dimensions      [0 0 0 1 0 0 0];

internalField   nonuniform List<scalar> 
400
(
293.099
293.342
293.744
294.395
295.319
296.435
297.603
298.688
299.607
300.314
300.78
300.977
300.88
300.474
299.757
298.753
297.526
296.181
294.842
293.594
293.333
294.173
295.569
297.829
300.976
304.662
308.354
311.637
314.306
316.275
317.494
317.912
317.477
316.149
313.918
310.838
307.074
302.92
298.754
294.853
293.673
295.365
298.166
302.614
308.574
315.194
321.461
326.768
330.938
333.939
335.748
336.316
335.565
333.396
329.729
324.565
318.096
310.789
303.337
296.316
294.156
297.024
301.716
308.929
318.093
327.598
335.98
342.684
347.751
351.309
353.441
354.151
353.333
350.783
346.235
339.475
330.536
319.939
308.744
298.033
294.793
299.171
306.188
316.535
328.835
340.54
349.96
356.946
361.95
365.366
367.474
368.369
367.926
365.786
361.398
354.132
343.573
330.009
314.835
299.96
295.582
301.765
311.409
324.922
339.737
352.377
361.379
367.372
371.326
373.962
375.788
376.979
377.392
376.524
373.508
367.169
356.341
340.621
321.47
302.039
296.503
304.71
317.096
333.459
349.719
361.743
368.904
372.853
375.056
376.543
377.973
379.557
381.156
382.185
381.552
377.565
368.107
351.526
328.677
304.256
297.545
307.974
323.069
341.584
357.917
367.824
372.054
373.329
373.481
373.74
374.761
376.76
379.62
382.786
385.104
384.555
378.103
362.386
336.567
306.625
298.636
311.212
328.746
348.703
363.787
370.347
371.039
369.495
367.697
366.873
367.528
369.878
373.847
379.02
384.357
387.796
385.647
372.706
345.232
309.167
299.894
314.989
334.649
354.732
367.091
369.486
366.576
362.504
359.13
357.465
357.81
360.383
365.159
371.944
379.962
387.388
390.307
381.913
354.684
311.953
300.973
317.786
339.13
358.837
367.744
365.783
359.669
353.643
349.174
346.923
347.015
349.649
354.868
362.716
372.793
383.751
391.925
389.444
364.788
315.199
302.548
322.309
344.543
362.087
366.339
360.018
351.41
344.134
339.044
336.456
336.354
338.901
344.205
352.514
363.857
377.535
390.608
394.837
375.225
319.395
303.343
323.827
347.023
362.526
362.487
352.879
342.869
335.036
329.742
327.035
326.799
329.157
334.26
342.476
354.231
369.56
386.702
397.804
385.504
325.363
305.78
329.678
351.856
363.324
358.341
345.943
335.176
327.241
322.061
319.4
319.084
321.212
325.949
333.656
345.04
360.8
380.76
398.253
395.031
334.079
305.379
329.317
351.892
360.297
352.015
338.838
328.673
321.386
316.682
314.207
313.852
315.733
320.053
327.018
337.441
352.403
373.575
396.305
403.203
346.245
311.023
337.021
356.409
360.016
348.688
335.39
325.886
319.115
314.77
312.462
312.079
313.659
317.506
323.56
332.668
345.762
366.287
392.344
409.526
361.728
306.104
334.556
353.402
354.677
343.669
332.71
325.238
320.151
317.002
315.425
315.458
316.811
320.045
324.8
332.275
342.701
360.693
387.244
413.77
379.255
319.392
344.096
358.741
358.2
349.879
341.956
336.273
332.243
329.853
328.295
328.174
328.568
330.654
333.367
338.752
345.975
360.04
383.137
416.368
396.824
304.442
335.946
348.833
352.129
351.592
349.651
348.552
347.168
347.115
346.583
347.61
347.947
350.279
351.865
356.444
360.879
371.428
386.081
419.889
413.128
326.345
342.771
353.753
360.956
367.566
372.166
377.48
380.962
385.833
388.561
393.372
395.471
400.59
402.159
408.194
409.506
418.009
419.983
436.177
430.303
)
;

boundaryField
{
    movingWall
    {
        type            fixedValue;
        value           uniform 493;
    }
    fixedWalls
    {
        type            fixedValue;
        value           uniform 293;
    }
    frontAndBack
    {
        type            empty;
    }
}


// ************************************************************************* //
