/*--------------------------------*- C++ -*----------------------------------*\
  =========                 |
  \\      /  F ield         | OpenFOAM: The Open Source CFD Toolbox
   \\    /   O peration     | Website:  https://openfoam.org
    \\  /    A nd           | Version:  8
     \\/     M anipulation  |
\*---------------------------------------------------------------------------*/
FoamFile
{
    version     2.0;
    format      ascii;
    class       volScalarField;
    location    "4.5";
    object      p;
}
// * * * * * * * * * * * * * * * * * * * * * * * * * * * * * * * * * * * * * //

dimensions      [0 2 -2 0 0 0 0];

internalField   nonuniform List<scalar> 
400
(
8.60373e-07
-0.00582853
-0.0129669
-0.0184195
-0.0204371
-0.0182435
-0.011779
-0.00148885
0.0118322
0.0271441
0.0432395
0.0588184
0.0725741
0.0833041
0.0900484
0.0922625
0.0900213
0.0842392
0.0768759
0.0710624
0.00577757
-0.000222013
-0.00580816
-0.00954705
-0.0106037
-0.00843758
-0.00297488
0.00546915
0.0162979
0.0287067
0.0417449
0.0543812
0.0655818
0.0744054
0.0801158
0.0823113
0.0810727
0.0770502
0.0712694
0.065313
0.0133314
0.00502972
-0.000999531
-0.00442759
-0.00527762
-0.00326878
0.00159742
0.00902263
0.0184971
0.0293443
0.0407605
0.0518648
0.0617637
0.0696317
0.0748024
0.0768735
0.075837
0.0720812
0.0658007
0.0575306
0.0201356
0.00869193
0.00122163
-0.00267298
-0.00372679
-0.00189016
0.00272633
0.00977959
0.0187754
0.0290901
0.0399871
0.0506491
0.0602281
0.0679111
0.0729984
0.0749968
0.0737611
0.0694514
0.0615981
0.0500975
0.0244981
0.00976903
0.000585552
-0.0039913
-0.00530682
-0.00351212
0.0011698
0.00832955
0.017457
0.0279441
0.0390801
0.050065
0.060044
0.0681602
0.0736215
0.0757929
0.0743641
0.0692849
0.0595206
0.0445321
0.0251739
0.00714589
-0.00380626
-0.00906154
-0.0105166
-0.00850464
-0.00336166
0.00442444
0.0143083
0.025674
0.0378088
0.0498984
0.0610432
0.0702982
0.0767297
0.0795119
0.0781339
0.0723286
0.0605343
0.041885
0.0210894
-0.000266608
-0.0129388
-0.0187137
-0.0200342
-0.0174185
-0.0113231
-0.00232457
0.00898544
0.0219712
0.0359046
0.0499394
0.0631073
0.0743404
0.082517
0.0865645
0.0857157
0.0794421
0.0656153
0.0430666
0.0111386
-0.0136225
-0.0278795
-0.0338587
-0.0346079
-0.0308619
-0.0232174
-0.0123499
0.00109997
0.0164789
0.0330475
0.0499287
0.0660785
0.080285
0.0911959
0.0974251
0.0978653
0.0916311
0.0758913
0.0491115
-0.00597148
-0.0342709
-0.0498745
-0.0555531
-0.0550946
-0.049519
-0.039598
-0.0261179
-0.00976183
0.00881814
0.028896
0.0495885
0.0697926
0.0881497
0.103043
0.112696
0.115546
0.110187
0.0928293
0.0614065
-0.0318616
-0.0638806
-0.0804215
-0.0850118
-0.0824247
-0.0740828
-0.0609854
-0.0440411
-0.0239561
-0.00134161
0.0231408
0.0486561
0.0740907
0.0979674
0.118391
0.133121
0.139984
0.136813
0.118436
0.081929
-0.0686719
-0.104608
-0.121349
-0.123595
-0.11752
-0.105131
-0.0877228
-0.06633
-0.0416415
-0.0141602
0.0156009
0.0469485
0.078851
0.109789
0.137619
0.159581
0.172722
0.173773
0.155516
0.113566
-0.119407
-0.159361
-0.174919
-0.172761
-0.161152
-0.142933
-0.119763
-0.0927815
-0.0625819
-0.0294521
0.00636866
0.044469
0.0840506
0.123698
0.161132
0.193081
0.215664
0.224072
0.208046
0.160628
-0.188633
-0.232246
-0.243943
-0.233952
-0.213699
-0.187159
-0.156377
-0.122505
-0.0859022
-0.0464764
-0.00401871
0.0415346
0.0898379
0.139825
0.189315
0.234685
0.27107
0.29166
0.281738
0.229772
-0.283979
-0.329309
-0.331836
-0.308284
-0.274712
-0.236444
-0.195768
-0.153614
-0.109844
-0.0637491
-0.0144418
0.0388595
0.0965504
0.158273
0.22237
0.285284
0.341393
0.381571
0.38491
0.33183
-0.419322
-0.459675
-0.442354
-0.395796
-0.342132
-0.287743
-0.234619
-0.182933
-0.131613
-0.0789884
-0.0232175
0.0374718
0.10455
0.178834
0.259858
0.344967
0.428613
0.499696
0.529671
0.485388
-0.620535
-0.636747
-0.57868
-0.494196
-0.411243
-0.335661
-0.267783
-0.20598
-0.147539
-0.0893859
-0.028429
0.0383453
0.113804
0.200469
0.299972
0.412022
0.533026
0.651772
0.732769
0.722393
-0.935927
-0.878518
-0.741744
-0.597951
-0.474395
-0.372662
-0.288871
-0.217765
-0.153956
-0.0924664
-0.0287198
0.0416931
0.123261
0.220716
0.338923
0.482152
0.651994
0.841339
1.01527
1.0975
-1.47643
-1.20663
-0.920505
-0.69139
-0.517307
-0.387546
-0.290063
-0.213339
-0.148126
-0.0872177
-0.0245799
0.0454551
0.128935
0.233069
0.367101
0.542676
0.771291
1.05932
1.40328
1.73014
-2.53965
-1.63055
-1.04444
-0.710961
-0.495752
-0.352095
-0.254533
-0.183585
-0.126171
-0.0735974
-0.0192713
0.0427845
0.11921
0.21878
0.35481
0.547981
0.82639
1.23658
1.91167
2.92419
-4.36667
-2.04464
-0.973544
-0.563183
-0.357848
-0.240149
-0.170121
-0.123785
-0.0874835
-0.0535126
-0.0166568
0.0276582
0.084605
0.161727
0.272409
0.442096
0.718216
1.22571
2.41103
4.84853
)
;

boundaryField
{
    movingWall
    {
        type            zeroGradient;
    }
    fixedWalls
    {
        type            zeroGradient;
    }
    frontAndBack
    {
        type            empty;
    }
}


// ************************************************************************* //
