/*--------------------------------*- C++ -*----------------------------------*\
  =========                 |
  \\      /  F ield         | OpenFOAM: The Open Source CFD Toolbox
   \\    /   O peration     | Website:  https://openfoam.org
    \\  /    A nd           | Version:  8
     \\/     M anipulation  |
\*---------------------------------------------------------------------------*/
FoamFile
{
    version     2.0;
    format      ascii;
    class       volScalarField;
    location    "0.9";
    object      T;
}
// * * * * * * * * * * * * * * * * * * * * * * * * * * * * * * * * * * * * * //

dimensions      [0 0 0 1 0 0 0];

internalField   nonuniform List<scalar> 
400
(
293.003
293.006
293.019
293.055
293.137
293.304
293.587
293.988
294.466
294.95
295.366
295.653
295.767
295.687
295.413
294.977
294.446
293.914
293.468
293.137
293.006
293.026
293.085
293.246
293.628
294.394
295.654
297.357
299.274
301.1
302.577
303.526
303.834
303.446
302.37
300.706
298.675
296.609
294.849
293.54
293.015
293.071
293.24
293.711
294.827
296.987
300.357
304.608
309.033
312.946
315.921
317.73
318.235
317.345
315.034
311.412
306.831
301.961
297.637
294.346
293.036
293.172
293.59
294.76
297.449
302.368
309.439
317.473
324.913
330.836
335.012
337.422
338.031
336.713
333.28
327.618
319.943
311.109
302.632
295.811
293.079
293.375
294.295
296.818
302.312
311.524
323.221
334.514
343.242
349.243
353.145
355.373
356.061
354.984
351.629
345.346
335.714
323.205
309.763
297.977
293.156
293.743
295.552
300.298
309.837
323.95
338.842
349.955
356.373
360.045
362.411
364.121
365.301
365.53
363.923
359.187
349.937
335.605
317.833
300.549
293.285
294.337
297.51
305.344
319.452
337.022
351.082
357.672
359.638
360.611
361.703
363.465
365.774
368.087
369.27
367.566
360.616
346.443
325.616
303.115
293.491
295.273
300.309
311.664
329.558
347.279
356.203
356.551
355.068
354.543
355.235
357.59
361.241
365.785
370.042
372.049
368.597
356.026
333.078
305.519
293.738
296.309
303.541
318.503
338.311
352.504
354.193
349.687
346.68
345.395
346.082
348.907
353.622
360.04
367.246
373.291
374.4
365.016
340.965
307.901
294.198
298.248
307.847
325.263
344.354
352.392
347.252
340.288
336.753
334.949
335.72
338.64
343.968
351.588
361.195
371.103
377.473
373.035
349.667
310.479
294.418
298.99
311.027
330.612
347.053
347.933
337.88
330.431
326.714
324.758
325.582
328.313
333.734
341.784
352.874
365.929
377.553
379.394
359.047
313.51
295.421
302.774
316.454
335.555
346.856
340.715
328.145
321.398
317.698
315.956
316.683
319.065
324.076
331.86
343.369
358.493
374.784
383.613
368.748
317.476
295.134
301.776
317.961
336.982
343.287
332.151
319.426
313.895
310.407
309.049
309.568
311.561
315.868
322.875
333.818
349.668
369.519
385.372
378.253
323.168
297.498
308.468
324.12
339.765
339.639
324.609
312.736
308.232
305.044
303.993
304.282
305.933
309.568
315.619
325.328
340.53
362.393
384.585
386.941
331.515
295.151
304.422
322.872
336.767
332.533
316.836
307.305
304.021
301.342
300.377
300.456
301.872
305.136
310.451
318.766
332.211
354.268
381.406
394.201
343.169
301.933
314.775
329.896
338.859
330.381
314.649
306.214
302.826
299.987
298.487
298.254
299.519
302.701
307.62
314.831
325.929
346.331
376.274
399.545
357.962
292.991
306.971
324.536
332.034
323.751
310.725
303.399
300.479
298.963
298.484
299.135
300.77
303.912
308.189
314.424
323.103
340.361
370.166
402.784
374.626
309.566
321.227
333.91
338.693
333.406
324.951
318.529
314.487
312.247
310.878
310.794
311.16
312.957
315.238
319.75
326.008
339.529
365.433
404.502
391.239
288.671
304.948
316.64
322.759
324.801
324.369
324.078
323.367
323.761
323.724
325.052
325.801
328.331
330.3
335.039
340.072
351.381
368.928
407.748
406.696
319.437
328.516
337.128
343.82
350.454
355.421
361.043
365.019
370.221
373.484
378.603
381.277
386.67
388.888
395.183
397.331
406.2
409.634
426.648
423.751
)
;

boundaryField
{
    movingWall
    {
        type            fixedValue;
        value           uniform 493;
    }
    fixedWalls
    {
        type            fixedValue;
        value           uniform 293;
    }
    frontAndBack
    {
        type            empty;
    }
}


// ************************************************************************* //
