/*--------------------------------*- C++ -*----------------------------------*\
  =========                 |
  \\      /  F ield         | OpenFOAM: The Open Source CFD Toolbox
   \\    /   O peration     | Website:  https://openfoam.org
    \\  /    A nd           | Version:  8
     \\/     M anipulation  |
\*---------------------------------------------------------------------------*/
FoamFile
{
    version     2.0;
    format      ascii;
    class       volScalarField;
    location    "5";
    object      p;
}
// * * * * * * * * * * * * * * * * * * * * * * * * * * * * * * * * * * * * * //

dimensions      [0 2 -2 0 0 0 0];

internalField   nonuniform List<scalar> 
400
(
7.08505e-07
-0.00582877
-0.0129672
-0.0184197
-0.0204374
-0.0182439
-0.0117794
-0.00148918
0.011832
0.0271439
0.0432394
0.0588181
0.0725738
0.0833037
0.090048
0.0922622
0.090021
0.0842391
0.0768758
0.0710623
0.0057773
-0.000222301
-0.00580842
-0.00954729
-0.0106039
-0.00843785
-0.00297522
0.00546878
0.0162975
0.0287064
0.0417446
0.054381
0.0655815
0.0744051
0.0801155
0.0823109
0.0810724
0.0770499
0.0712691
0.0653129
0.0133311
0.0050294
-0.00099984
-0.00442785
-0.00527783
-0.00326899
0.00159715
0.00902228
0.0184967
0.0293439
0.0407602
0.0518645
0.0617636
0.0696315
0.0748022
0.0768732
0.0758367
0.0720808
0.0658004
0.0575304
0.0201353
0.00869161
0.00122128
-0.0026733
-0.00372703
-0.00189034
0.00272614
0.00977933
0.018775
0.0290897
0.0399867
0.0506488
0.0602279
0.067911
0.0729983
0.0749965
0.0737608
0.069451
0.0615977
0.0500972
0.0244978
0.00976874
0.0005852
-0.00399167
-0.00530714
-0.00351236
0.00116963
0.00832937
0.0174567
0.0279437
0.0390796
0.0500646
0.0600437
0.0681599
0.0736213
0.0757927
0.0743639
0.0692846
0.0595203
0.0445317
0.0251736
0.00714565
-0.00380657
-0.00906192
-0.010517
-0.00850497
-0.00336188
0.00442429
0.0143082
0.0256737
0.0378085
0.049898
0.0610428
0.0702979
0.0767295
0.0795117
0.0781338
0.0723283
0.060534
0.0418846
0.0210891
-0.000266815
-0.0129391
-0.018714
-0.0200346
-0.0174189
-0.0113234
-0.00232478
0.00898529
0.021971
0.0359044
0.0499391
0.0631069
0.07434
0.0825166
0.0865643
0.0857155
0.0794419
0.0656151
0.0430663
0.0111383
-0.0136228
-0.0278796
-0.0338589
-0.0346083
-0.0308624
-0.0232178
-0.0123502
0.00109976
0.0164788
0.0330474
0.0499284
0.0660781
0.0802846
0.0911955
0.0974248
0.0978651
0.0916308
0.0758911
0.0491112
-0.00597187
-0.0342712
-0.0498747
-0.0555533
-0.0550948
-0.0495194
-0.0395984
-0.0261183
-0.00976216
0.00881791
0.0288959
0.0495884
0.0697924
0.0881494
0.103042
0.112696
0.115545
0.110187
0.0928291
0.0614062
-0.031862
-0.063881
-0.0804217
-0.0850119
-0.0824248
-0.0740831
-0.0609857
-0.0440416
-0.0239565
-0.00134195
0.0231405
0.048656
0.0740906
0.0979672
0.118391
0.133121
0.139983
0.136813
0.118436
0.0819287
-0.0686722
-0.104608
-0.121349
-0.123595
-0.11752
-0.105131
-0.087723
-0.0663303
-0.0416419
-0.0141606
0.0156006
0.0469482
0.0788508
0.109789
0.137619
0.159581
0.172722
0.173773
0.155516
0.113566
-0.119407
-0.159362
-0.17492
-0.172762
-0.161153
-0.142934
-0.119764
-0.0927817
-0.0625822
-0.0294525
0.00636825
0.0444686
0.0840503
0.123698
0.161131
0.193081
0.215663
0.224072
0.208046
0.160628
-0.188633
-0.232247
-0.243943
-0.233952
-0.213699
-0.187159
-0.156377
-0.122506
-0.0859024
-0.0464767
-0.00401907
0.0415342
0.0898375
0.139825
0.189314
0.234685
0.27107
0.29166
0.281738
0.229771
-0.283979
-0.329309
-0.331836
-0.308284
-0.274713
-0.236444
-0.195769
-0.153614
-0.109844
-0.0637494
-0.0144421
0.0388592
0.09655
0.158272
0.22237
0.285284
0.341393
0.381571
0.38491
0.33183
-0.419323
-0.459675
-0.442354
-0.395796
-0.342133
-0.287743
-0.23462
-0.182934
-0.131613
-0.0789886
-0.0232177
0.0374716
0.104549
0.178834
0.259857
0.344966
0.428612
0.499696
0.529671
0.485388
-0.620535
-0.636747
-0.57868
-0.494196
-0.411244
-0.335661
-0.267784
-0.205981
-0.14754
-0.0893862
-0.0284292
0.0383451
0.113804
0.200468
0.299972
0.412022
0.533026
0.651772
0.732768
0.722392
-0.935927
-0.878518
-0.741744
-0.597951
-0.474395
-0.372662
-0.288871
-0.217765
-0.153956
-0.0924667
-0.0287201
0.0416929
0.123261
0.220715
0.338923
0.482152
0.651994
0.841339
1.01527
1.0975
-1.47643
-1.20663
-0.920506
-0.69139
-0.517307
-0.387546
-0.290063
-0.21334
-0.148126
-0.0872181
-0.0245803
0.0454548
0.128935
0.233068
0.3671
0.542675
0.77129
1.05932
1.40328
1.73014
-2.53965
-1.63055
-1.04444
-0.710961
-0.495753
-0.352095
-0.254533
-0.183585
-0.126172
-0.0735976
-0.0192716
0.0427842
0.11921
0.21878
0.354809
0.547981
0.82639
1.23658
1.91167
2.92419
-4.36667
-2.04464
-0.973544
-0.563183
-0.357848
-0.240149
-0.170122
-0.123785
-0.0874837
-0.0535128
-0.0166571
0.027658
0.0846047
0.161727
0.272408
0.442096
0.718216
1.22571
2.41103
4.84853
)
;

boundaryField
{
    movingWall
    {
        type            zeroGradient;
    }
    fixedWalls
    {
        type            zeroGradient;
    }
    frontAndBack
    {
        type            empty;
    }
}


// ************************************************************************* //
