/*--------------------------------*- C++ -*----------------------------------*\
  =========                 |
  \\      /  F ield         | OpenFOAM: The Open Source CFD Toolbox
   \\    /   O peration     | Website:  https://openfoam.org
    \\  /    A nd           | Version:  8
     \\/     M anipulation  |
\*---------------------------------------------------------------------------*/
FoamFile
{
    version     2.0;
    format      ascii;
    class       volScalarField;
    location    "5";
    object      T;
}
// * * * * * * * * * * * * * * * * * * * * * * * * * * * * * * * * * * * * * //

dimensions      [0 0 0 1 0 0 0];

internalField   nonuniform List<scalar> 
400
(
293.732
295.149
296.517
297.892
299.304
300.717
302.05
303.226
304.183
304.876
305.265
305.317
305
304.296
303.2
301.736
299.967
297.999
295.964
293.973
295.246
299.597
303.822
308.105
312.512
316.87
320.892
324.327
327.013
328.849
329.761
329.686
328.569
326.37
323.08
318.757
313.559
307.772
301.771
295.877
296.859
304.3
311.537
318.881
326.372
333.623
340.111
345.469
349.517
352.174
353.388
353.1
351.235
347.707
342.452
335.489
327.015
317.475
307.526
297.747
298.559
309.22
319.599
330.082
340.572
350.389
358.816
365.495
370.36
373.45
374.803
374.396
372.123
367.801
361.207
352.18
340.797
327.577
313.527
299.672
300.323
314.284
327.865
341.436
354.621
366.395
375.961
383.145
388.148
391.23
392.579
392.237
390.066
385.745
378.795
368.692
355.132
338.466
320.059
301.735
302.132
319.426
336.186
352.64
367.984
380.851
390.544
397.294
401.703
404.322
405.51
405.381
403.78
400.259
394.059
384.175
369.629
350.162
327.258
303.975
303.972
324.591
344.42
363.398
380.148
393.051
401.783
407.214
410.427
412.243
413.147
413.303
412.559
410.401
405.873
397.511
383.484
362.387
335.162
306.391
305.839
329.757
352.475
373.444
390.664
402.485
409.307
412.822
414.549
415.45
416.04
416.493
416.677
416.1
413.757
407.896
395.88
374.736
343.831
308.979
307.721
334.839
360.148
382.494
399.207
408.946
413.252
414.68
414.971
415.047
415.366
416.074
417.081
417.988
417.897
415.02
406.177
386.736
353.35
311.752
309.647
339.954
367.568
390.467
405.621
412.546
414.18
413.73
412.854
412.301
412.413
413.298
414.913
417.001
418.886
418.989
413.983
397.85
363.752
314.784
311.572
344.819
374.203
396.988
409.866
413.679
412.889
410.995
409.298
408.328
408.296
409.271
411.251
414.125
417.5
420.2
419.174
407.558
374.93
318.302
313.612
349.864
380.761
402.468
412.271
412.926
410.219
407.385
405.195
403.995
403.873
404.87
407
410.269
414.566
419.219
421.863
415.442
386.595
322.824
315.677
354.569
386.07
406.156
412.771
410.83
406.938
403.617
401.194
399.904
399.736
400.721
402.862
406.209
410.88
416.708
422.356
421.243
398.292
329.218
318.088
359.586
391.695
409.27
412.426
408.343
403.762
400.226
397.746
396.448
396.264
397.231
399.331
402.56
407.174
413.367
421.1
424.878
409.461
338.535
320.336
364.559
395.63
410.34
410.615
405.458
400.932
397.573
395.24
393.998
393.808
394.726
396.773
399.787
404.086
409.922
418.662
426.432
419.531
351.558
324.444
369.649
400.284
411.669
409.567
404.027
399.756
396.594
394.419
393.235
393.029
393.782
395.685
398.335
402.19
407.113
415.752
426.15
428.02
368.232
325.434
375.484
402.629
410.686
407.676
402.945
399.535
397.195
395.689
394.865
394.906
395.428
397.008
398.901
402.119
405.747
413.338
424.506
434.611
387.302
334.185
379.837
405.369
411.723
410.033
407.112
404.776
402.925
401.926
400.99
401.001
400.804
401.8
402.405
404.751
406.815
412.961
422.542
439.346
406.645
328.315
383.529
401.822
407.491
408.965
408.396
408.298
407.325
407.549
406.775
407.545
407.038
408.518
408.398
411.07
411.938
417.795
423.17
443.421
424.539
336.814
364.371
379.271
387.983
395.414
400.187
405.653
408.866
413.662
415.887
420.522
421.91
426.766
427.331
432.927
432.646
440.178
439.04
453.055
441.741
)
;

boundaryField
{
    movingWall
    {
        type            fixedValue;
        value           uniform 493;
    }
    fixedWalls
    {
        type            fixedValue;
        value           uniform 293;
    }
    frontAndBack
    {
        type            empty;
    }
}


// ************************************************************************* //
