/*--------------------------------*- C++ -*----------------------------------*\
  =========                 |
  \\      /  F ield         | OpenFOAM: The Open Source CFD Toolbox
   \\    /   O peration     | Website:  https://openfoam.org
    \\  /    A nd           | Version:  8
     \\/     M anipulation  |
\*---------------------------------------------------------------------------*/
FoamFile
{
    version     2.0;
    format      ascii;
    class       volScalarField;
    location    "6.8";
    object      p;
}
// * * * * * * * * * * * * * * * * * * * * * * * * * * * * * * * * * * * * * //

dimensions      [0 2 -2 0 0 0 0];

internalField   nonuniform List<scalar> 
400
(
3.53399e-07
-0.00582939
-0.0129679
-0.0184204
-0.0204381
-0.0182445
-0.01178
-0.00148981
0.0118313
0.0271432
0.0432386
0.0588174
0.0725732
0.0833031
0.0900475
0.0922616
0.0900203
0.0842383
0.076875
0.0710614
0.00577671
-0.000222929
-0.0058091
-0.009548
-0.0106046
-0.00843854
-0.00297584
0.00546819
0.0162969
0.0287057
0.0417439
0.0543802
0.0655808
0.0744044
0.0801148
0.0823103
0.0810718
0.0770492
0.0712684
0.0653121
0.0133304
0.00502878
-0.00100047
-0.00442854
-0.00527858
-0.00326974
0.00159646
0.00902167
0.0184961
0.0293434
0.0407595
0.0518638
0.0617628
0.0696307
0.0748014
0.0768726
0.0758361
0.0720803
0.0657997
0.0575296
0.0201346
0.00869098
0.00122069
-0.00267393
-0.00372774
-0.00189112
0.00272536
0.00977863
0.0187745
0.0290891
0.0399861
0.0506482
0.0602271
0.0679102
0.0729975
0.0749958
0.0737602
0.0694504
0.0615972
0.0500966
0.0244971
0.00976808
0.000584603
-0.00399225
-0.00530777
-0.00351308
0.00116883
0.00832858
0.017456
0.0279431
0.0390791
0.0500641
0.060043
0.0681592
0.0736205
0.0757919
0.0743632
0.069284
0.0595197
0.0445311
0.0251729
0.00714493
-0.00380722
-0.00906249
-0.0105176
-0.0085056
-0.00336263
0.00442347
0.0143074
0.025673
0.0378079
0.0498974
0.0610423
0.0702973
0.0767287
0.0795109
0.078133
0.0723276
0.0605333
0.041884
0.0210884
-0.000267571
-0.0129398
-0.0187146
-0.0200352
-0.0174194
-0.011324
-0.00232554
0.00898447
0.0219702
0.0359037
0.0499385
0.0631063
0.0743394
0.082516
0.0865636
0.0857147
0.0794411
0.0656144
0.0430657
0.0111376
-0.0136235
-0.0278804
-0.0338596
-0.0346089
-0.0308629
-0.0232184
-0.0123509
0.001099
0.0164779
0.0330466
0.0499277
0.0660775
0.0802841
0.0911949
0.0974242
0.0978644
0.0916301
0.0758903
0.0491105
-0.00597244
-0.0342719
-0.0498755
-0.0555541
-0.0550956
-0.04952
-0.0395989
-0.0261189
-0.00976279
0.00881717
0.0288951
0.0495876
0.0697916
0.0881487
0.103042
0.112695
0.115545
0.110186
0.0928284
0.0614055
-0.0318625
-0.0638816
-0.0804224
-0.0850127
-0.0824256
-0.0740838
-0.0609863
-0.0440421
-0.0239571
-0.00134257
0.0231398
0.0486552
0.0740898
0.0979665
0.11839
0.13312
0.139983
0.136812
0.118435
0.081928
-0.0686728
-0.104609
-0.12135
-0.123596
-0.117521
-0.105132
-0.0877238
-0.066331
-0.0416425
-0.0141611
0.0156
0.0469475
0.07885
0.109788
0.137618
0.15958
0.172721
0.173773
0.155515
0.113565
-0.119408
-0.159362
-0.17492
-0.172762
-0.161153
-0.142934
-0.119764
-0.0927824
-0.0625828
-0.029453
0.0063677
0.044468
0.0840496
0.123697
0.161131
0.19308
0.215663
0.224072
0.208045
0.160627
-0.188634
-0.232247
-0.243944
-0.233953
-0.213699
-0.18716
-0.156378
-0.122506
-0.0859032
-0.0464774
-0.00401967
0.0415336
0.0898369
0.139824
0.189314
0.234684
0.271069
0.291659
0.281738
0.229771
-0.28398
-0.32931
-0.331837
-0.308285
-0.274713
-0.236445
-0.195769
-0.153615
-0.109845
-0.0637501
-0.0144428
0.0388585
0.0965494
0.158272
0.222369
0.285283
0.341392
0.38157
0.384909
0.331829
-0.419323
-0.459676
-0.442355
-0.395797
-0.342133
-0.287744
-0.23462
-0.182934
-0.131614
-0.0789894
-0.0232185
0.0374709
0.104549
0.178833
0.259857
0.344966
0.428612
0.499696
0.529671
0.485387
-0.620536
-0.636748
-0.578681
-0.494197
-0.411244
-0.335662
-0.267784
-0.205981
-0.14754
-0.0893869
-0.02843
0.0383444
0.113803
0.200468
0.299971
0.412021
0.533026
0.651771
0.732768
0.722392
-0.935928
-0.878519
-0.741745
-0.597952
-0.474396
-0.372662
-0.288872
-0.217766
-0.153957
-0.0924673
-0.0287208
0.0416922
0.12326
0.220715
0.338922
0.482151
0.651993
0.841338
1.01527
1.0975
-1.47643
-1.20663
-0.920506
-0.691391
-0.517308
-0.387547
-0.290064
-0.21334
-0.148127
-0.0872187
-0.0245809
0.0454542
0.128934
0.233068
0.3671
0.542675
0.77129
1.05931
1.40328
1.73014
-2.53965
-1.63055
-1.04444
-0.710962
-0.495753
-0.352096
-0.254534
-0.183586
-0.126172
-0.0735983
-0.0192723
0.0427836
0.119209
0.218779
0.354809
0.54798
0.82639
1.23658
1.91167
2.92419
-4.36667
-2.04464
-0.973545
-0.563183
-0.357849
-0.240149
-0.170122
-0.123786
-0.0874844
-0.0535135
-0.0166578
0.0276573
0.0846041
0.161726
0.272408
0.442096
0.718215
1.22571
2.41103
4.84853
)
;

boundaryField
{
    movingWall
    {
        type            zeroGradient;
    }
    fixedWalls
    {
        type            zeroGradient;
    }
    frontAndBack
    {
        type            empty;
    }
}


// ************************************************************************* //
