/*--------------------------------*- C++ -*----------------------------------*\
  =========                 |
  \\      /  F ield         | OpenFOAM: The Open Source CFD Toolbox
   \\    /   O peration     | Website:  https://openfoam.org
    \\  /    A nd           | Version:  8
     \\/     M anipulation  |
\*---------------------------------------------------------------------------*/
FoamFile
{
    version     2.0;
    format      ascii;
    class       volScalarField;
    location    "6.8";
    object      T;
}
// * * * * * * * * * * * * * * * * * * * * * * * * * * * * * * * * * * * * * //

dimensions      [0 0 0 1 0 0 0];

internalField   nonuniform List<scalar> 
400
(
293.773
295.267
296.699
298.129
299.589
301.045
302.415
303.621
304.599
305.301
305.69
305.729
305.39
304.652
303.514
302
300.176
298.148
296.053
294.002
295.371
299.953
304.372
308.82
313.371
317.859
321.989
325.506
328.245
330.101
331
330.881
329.69
327.39
323.976
319.51
314.154
308.199
302.026
295.961
297.069
304.894
312.454
320.068
327.796
335.255
341.915
347.398
351.52
354.198
355.381
355.011
353.017
349.318
343.857
336.663
327.939
318.139
307.923
297.878
298.855
310.053
320.879
331.733
342.547
352.646
361.302
368.146
373.106
376.221
377.524
376.995
374.535
369.966
363.081
353.733
342.01
328.445
314.046
299.843
300.704
315.352
329.501
343.543
357.139
369.271
379.13
386.534
391.67
394.793
396.084
395.583
393.16
388.506
381.163
370.632
356.631
339.527
320.691
301.943
302.599
320.726
338.173
355.2
371.049
384.367
394.443
401.494
406.102
408.797
409.926
409.601
407.673
403.715
396.998
386.554
371.44
351.426
328.003
304.217
304.525
326.123
346.76
366.419
383.785
397.258
406.499
412.346
415.846
417.789
418.64
418.558
417.402
414.682
409.485
400.399
385.648
363.871
336.025
306.669
306.48
331.522
355.172
376.944
394.918
407.465
414.957
419.032
421.154
422.242
422.788
422.958
422.633
421.352
418.162
411.381
398.449
376.465
344.818
309.293
308.453
336.85
363.222
386.507
404.14
414.799
419.967
422.121
422.929
423.263
423.55
423.928
424.32
424.366
423.228
419.204
409.218
388.738
354.471
312.103
310.47
342.193
371.015
395.026
411.308
419.38
422.095
422.552
422.324
422.105
422.202
422.711
423.604
424.664
425.284
423.987
417.575
400.167
365.021
315.173
312.506
347.364
378.095
402.161
416.392
421.603
422.125
421.325
420.414
419.858
419.831
420.39
421.543
423.222
425.107
426.132
423.405
410.239
376.365
318.732
314.631
352.598
385.053
408.28
419.709
422.033
420.87
419.311
418.038
417.332
417.24
417.789
419.001
420.92
423.507
426.207
426.833
418.548
388.22
323.303
316.864
357.757
390.915
412.719
421.213
421.188
419.042
417.152
415.758
415.03
414.919
415.439
416.596
418.47
421.242
424.855
428.164
424.843
400.14
329.76
319.323
362.861
396.975
416.555
421.871
419.932
417.256
415.258
413.874
413.18
413.077
413.584
414.678
416.37
418.961
422.734
427.833
429.046
411.572
339.162
321.909
368.566
401.617
418.502
421.111
418.2
415.614
413.791
412.54
411.898
411.804
412.297
413.381
414.888
417.156
420.474
426.369
431.241
421.951
352.308
325.907
373.59
406.709
420.513
420.853
417.539
415.103
413.348
412.146
411.5
411.391
411.784
412.853
414.156
416.143
418.641
424.392
431.649
430.801
369.154
327.645
380.554
409.921
420.302
419.521
416.678
414.744
413.492
412.716
412.283
412.391
412.636
413.588
414.434
416.156
417.717
422.666
430.665
437.792
388.452
335.937
384.55
412.713
421.199
421.237
419.645
418.289
417.126
416.583
415.879
415.938
415.568
416.192
416.134
417.524
418.149
422.308
429.106
442.893
408.061
331.228
389.687
409.497
416.167
418.37
418.302
418.571
417.819
418.196
417.459
418.225
417.587
418.895
418.427
420.663
420.774
425.634
429.256
447.053
426.195
338.062
367.015
382.544
391.58
399.225
404.103
409.658
412.89
417.725
419.921
424.566
425.882
430.721
431.155
436.689
436.167
443.525
441.883
455.504
443.381
)
;

boundaryField
{
    movingWall
    {
        type            fixedValue;
        value           uniform 493;
    }
    fixedWalls
    {
        type            fixedValue;
        value           uniform 293;
    }
    frontAndBack
    {
        type            empty;
    }
}


// ************************************************************************* //
