/*--------------------------------*- C++ -*----------------------------------*\
  =========                 |
  \\      /  F ield         | OpenFOAM: The Open Source CFD Toolbox
   \\    /   O peration     | Website:  https://openfoam.org
    \\  /    A nd           | Version:  8
     \\/     M anipulation  |
\*---------------------------------------------------------------------------*/
FoamFile
{
    version     2.0;
    format      ascii;
    class       volScalarField;
    location    "7.2";
    object      p;
}
// * * * * * * * * * * * * * * * * * * * * * * * * * * * * * * * * * * * * * //

dimensions      [0 2 -2 0 0 0 0];

internalField   nonuniform List<scalar> 
400
(
3.00904e-07
-0.00582947
-0.0129679
-0.0184205
-0.0204382
-0.0182446
-0.0117802
-0.00148995
0.0118312
0.0271431
0.0432386
0.0588173
0.0725731
0.0833029
0.0900473
0.0922614
0.0900202
0.0842383
0.076875
0.0710614
0.00577661
-0.000223038
-0.00580918
-0.00954806
-0.0106047
-0.00843862
-0.00297597
0.00546802
0.0162968
0.0287056
0.0417439
0.0543802
0.0655808
0.0744043
0.0801147
0.0823102
0.0810716
0.0770491
0.0712684
0.0653121
0.0133303
0.00502865
-0.0010006
-0.00442862
-0.00527862
-0.00326977
0.00159639
0.00902153
0.018496
0.0293432
0.0407594
0.0518637
0.0617628
0.0696307
0.0748014
0.0768724
0.0758359
0.0720801
0.0657996
0.0575296
0.0201345
0.00869086
0.00122053
-0.00267406
-0.00372782
-0.00189114
0.00272535
0.00977856
0.0187743
0.0290889
0.0399859
0.050648
0.0602271
0.0679102
0.0729975
0.0749958
0.07376
0.0694502
0.061597
0.0500965
0.0244971
0.00976798
0.000584453
-0.00399242
-0.00530791
-0.00351315
0.00116883
0.00832858
0.0174559
0.027943
0.0390789
0.0500639
0.0600429
0.0681591
0.0736205
0.0757919
0.0743631
0.0692838
0.0595195
0.0445309
0.0251728
0.00714487
-0.00380733
-0.00906266
-0.0105178
-0.00850574
-0.00336268
0.00442349
0.0143074
0.025673
0.0378077
0.0498972
0.0610421
0.0702971
0.0767287
0.0795109
0.078133
0.0723276
0.0605332
0.0418838
0.0210883
-0.000267604
-0.0129398
-0.0187147
-0.0200354
-0.0174196
-0.0113242
-0.00232558
0.00898449
0.0219702
0.0359036
0.0499383
0.0631061
0.0743392
0.0825159
0.0865635
0.0857147
0.0794411
0.0656143
0.0430656
0.0111375
-0.0136236
-0.0278804
-0.0338597
-0.034609
-0.0308631
-0.0232186
-0.012351
0.00109896
0.016478
0.0330466
0.0499276
0.0660774
0.0802839
0.0911947
0.097424
0.0978643
0.0916301
0.0758903
0.0491104
-0.00597263
-0.034272
-0.0498755
-0.0555541
-0.0550956
-0.0495201
-0.0395991
-0.0261191
-0.00976294
0.00881712
0.0288951
0.0495876
0.0697916
0.0881486
0.103042
0.112695
0.115545
0.110186
0.0928283
0.0614054
-0.0318627
-0.0638817
-0.0804225
-0.0850127
-0.0824256
-0.0740839
-0.0609865
-0.0440423
-0.0239573
-0.00134272
0.0231397
0.0486551
0.0740898
0.0979664
0.11839
0.13312
0.139983
0.136812
0.118435
0.0819279
-0.068673
-0.104609
-0.12135
-0.123596
-0.117521
-0.105132
-0.0877238
-0.0663311
-0.0416427
-0.0141613
0.0155998
0.0469474
0.07885
0.109788
0.137618
0.15958
0.172721
0.173772
0.155515
0.113565
-0.119408
-0.159363
-0.17492
-0.172763
-0.161153
-0.142934
-0.119764
-0.0927825
-0.0625829
-0.0294532
0.00636751
0.0444679
0.0840495
0.123697
0.161131
0.19308
0.215663
0.224071
0.208045
0.160627
-0.188634
-0.232247
-0.243944
-0.233953
-0.2137
-0.18716
-0.156378
-0.122506
-0.0859032
-0.0464775
-0.00401982
0.0415334
0.0898367
0.139824
0.189314
0.234684
0.271069
0.291659
0.281737
0.22977
-0.28398
-0.32931
-0.331837
-0.308285
-0.274714
-0.236445
-0.195769
-0.153615
-0.109845
-0.0637501
-0.0144429
0.0388584
0.0965493
0.158272
0.222369
0.285283
0.341392
0.38157
0.384909
0.331829
-0.419323
-0.459676
-0.442355
-0.395797
-0.342134
-0.287744
-0.23462
-0.182934
-0.131614
-0.0789894
-0.0232185
0.0374708
0.104549
0.178833
0.259857
0.344966
0.428612
0.499695
0.52967
0.485387
-0.620536
-0.636748
-0.578681
-0.494197
-0.411244
-0.335662
-0.267784
-0.205981
-0.14754
-0.0893869
-0.02843
0.0383443
0.113803
0.200468
0.299971
0.412021
0.533025
0.651771
0.732768
0.722392
-0.935928
-0.878519
-0.741745
-0.597952
-0.474396
-0.372663
-0.288872
-0.217766
-0.153957
-0.0924675
-0.0287209
0.0416921
0.12326
0.220714
0.338922
0.482151
0.651993
0.841338
1.01527
1.0975
-1.47643
-1.20663
-0.920506
-0.691391
-0.517308
-0.387547
-0.290064
-0.21334
-0.148127
-0.0872188
-0.024581
0.0454541
0.128934
0.233068
0.3671
0.542675
0.77129
1.05931
1.40328
1.73014
-2.53965
-1.63055
-1.04444
-0.710962
-0.495754
-0.352096
-0.254534
-0.183586
-0.126172
-0.0735984
-0.0192724
0.0427835
0.119209
0.218779
0.354809
0.54798
0.826389
1.23658
1.91167
2.92419
-4.36667
-2.04464
-0.973545
-0.563184
-0.357849
-0.24015
-0.170122
-0.123786
-0.0874845
-0.0535136
-0.0166579
0.0276572
0.0846039
0.161726
0.272408
0.442095
0.718215
1.22571
2.41103
4.84853
)
;

boundaryField
{
    movingWall
    {
        type            zeroGradient;
    }
    fixedWalls
    {
        type            zeroGradient;
    }
    frontAndBack
    {
        type            empty;
    }
}


// ************************************************************************* //
