/*--------------------------------*- C++ -*----------------------------------*\
  =========                 |
  \\      /  F ield         | OpenFOAM: The Open Source CFD Toolbox
   \\    /   O peration     | Website:  https://openfoam.org
    \\  /    A nd           | Version:  8
     \\/     M anipulation  |
\*---------------------------------------------------------------------------*/
FoamFile
{
    version     2.0;
    format      ascii;
    class       volScalarField;
    location    "7.2";
    object      T;
}
// * * * * * * * * * * * * * * * * * * * * * * * * * * * * * * * * * * * * * //

dimensions      [0 0 0 1 0 0 0];

internalField   nonuniform List<scalar> 
400
(
293.778
295.283
296.724
298.162
299.63
301.092
302.468
303.678
304.658
305.362
305.751
305.788
305.446
304.703
303.559
302.038
300.206
298.17
296.066
294.006
295.388
300.002
304.449
308.921
313.494
318
322.147
325.676
328.422
330.281
331.179
331.053
329.852
327.537
324.106
319.618
314.239
308.26
302.063
295.973
297.098
304.978
312.583
320.237
328
335.49
342.175
347.676
351.809
354.491
355.669
355.288
353.275
349.551
344.06
336.833
328.073
318.234
307.98
297.897
298.896
310.17
321.06
331.969
342.831
352.972
361.662
368.53
373.505
376.623
377.92
377.373
374.885
370.281
363.353
353.958
342.186
328.57
314.121
299.868
300.758
315.503
329.733
343.844
357.501
369.688
379.59
387.027
392.183
395.313
396.595
396.071
393.611
388.908
381.508
370.915
356.849
339.682
320.782
301.973
302.665
320.911
338.457
355.568
371.493
384.878
395.011
402.107
406.744
409.451
410.572
410.218
408.242
404.22
397.427
386.9
371.703
351.61
328.111
304.252
304.603
326.341
347.095
366.854
384.313
397.871
407.187
413.096
416.639
418.601
419.444
419.328
418.111
415.309
410.014
400.821
385.964
364.088
336.151
306.709
306.57
331.773
355.559
377.45
395.537
408.192
415.783
419.941
422.122
423.238
423.778
423.906
423.506
422.121
418.807
411.891
398.825
376.717
344.962
309.338
308.557
337.137
363.665
387.089
404.86
415.655
420.951
423.213
424.098
424.47
424.752
425.082
425.383
425.302
424.009
419.817
409.663
389.03
354.635
312.154
310.587
342.513
371.513
395.69
412.139
420.381
423.257
423.848
423.717
423.547
423.642
424.096
424.882
425.79
426.222
424.719
418.1
400.505
365.206
315.229
312.64
347.729
378.658
402.915
417.348
422.766
423.483
422.846
422.051
421.557
421.531
422.028
423.059
424.56
426.224
427.002
424.025
410.631
376.574
318.795
314.778
352.991
385.675
409.129
420.8
423.372
422.438
421.068
419.932
419.3
419.213
419.695
420.77
422.488
424.821
427.233
427.561
419.002
388.457
323.373
317.035
358.217
391.619
413.679
422.452
422.711
420.826
419.15
417.909
417.265
417.163
417.614
418.623
420.277
422.767
426.052
429.016
425.37
400.41
329.839
319.501
363.335
397.744
417.622
423.259
421.639
419.247
417.479
416.26
415.656
415.566
416.003
416.946
418.408
420.699
424.112
428.821
429.657
411.88
339.254
322.136
369.146
402.49
419.699
422.655
420.079
417.783
416.189
415.102
414.549
414.47
414.898
415.838
417.119
419.085
422.028
427.501
431.946
422.305
352.418
326.119
374.162
407.649
421.811
422.516
419.533
417.371
415.828
414.771
414.206
414.112
414.451
415.394
416.496
418.203
420.34
425.662
432.456
431.208
369.288
327.965
381.291
410.987
421.714
421.265
418.704
416.991
415.903
415.236
414.862
414.98
415.183
416.041
416.73
418.229
419.482
424.038
431.569
438.257
388.62
336.191
385.236
413.789
422.592
422.887
421.493
420.283
419.223
418.748
418.079
418.145
417.749
418.317
418.161
419.408
419.819
423.683
430.069
443.413
408.268
331.651
390.583
410.618
417.438
419.75
419.757
420.081
419.361
419.762
419.031
419.796
419.139
420.422
419.902
422.073
422.073
426.786
430.149
447.584
426.438
338.243
367.399
383.02
392.103
399.78
404.675
410.243
413.478
418.319
420.51
425.157
426.463
431.299
431.715
437.24
436.682
444.015
442.299
455.861
443.621
)
;

boundaryField
{
    movingWall
    {
        type            fixedValue;
        value           uniform 493;
    }
    fixedWalls
    {
        type            fixedValue;
        value           uniform 293;
    }
    frontAndBack
    {
        type            empty;
    }
}


// ************************************************************************* //
