/*--------------------------------*- C++ -*----------------------------------*\
  =========                 |
  \\      /  F ield         | OpenFOAM: The Open Source CFD Toolbox
   \\    /   O peration     | Website:  https://openfoam.org
    \\  /    A nd           | Version:  8
     \\/     M anipulation  |
\*---------------------------------------------------------------------------*/
FoamFile
{
    version     2.0;
    format      ascii;
    class       volScalarField;
    location    "7.9";
    object      T;
}
// * * * * * * * * * * * * * * * * * * * * * * * * * * * * * * * * * * * * * //

dimensions      [0 0 0 1 0 0 0];

internalField   nonuniform List<scalar> 
400
(
293.786
295.306
296.761
298.21
299.688
301.159
302.543
303.759
304.744
305.45
305.838
305.873
305.526
304.777
303.624
302.093
300.249
298.201
296.084
294.012
295.413
300.073
304.559
309.066
313.669
318.203
322.373
325.92
328.677
330.54
331.435
331.301
330.084
327.748
324.291
319.774
314.362
308.348
302.115
295.99
297.14
305.097
312.768
320.479
328.292
335.827
342.548
348.076
352.225
354.911
356.083
355.685
353.645
349.886
344.352
337.077
328.264
318.371
308.062
297.924
298.955
310.337
321.319
332.306
343.238
353.439
362.178
369.082
374.078
377.202
378.488
377.916
375.389
370.733
363.744
354.281
342.439
328.75
314.228
299.903
300.835
315.719
330.066
344.277
358.022
370.286
380.251
387.735
392.92
396.059
397.33
396.772
394.259
389.487
382.004
371.32
357.162
339.903
320.914
302.016
302.759
321.174
338.863
356.096
372.129
385.611
395.826
402.988
407.667
410.391
411.5
411.105
409.061
404.946
398.044
387.399
372.083
351.875
328.267
304.303
304.715
326.653
347.576
367.48
385.071
398.752
408.177
414.175
417.78
419.769
420.601
420.435
419.13
416.209
410.773
401.428
386.418
364.399
336.331
306.767
306.701
332.134
356.114
378.177
396.427
409.237
416.972
421.249
423.515
424.671
425.202
425.27
424.762
423.228
419.734
412.624
399.365
377.079
345.169
309.404
308.706
337.549
364.3
387.925
405.894
416.885
422.367
424.784
425.779
426.206
426.482
426.742
426.912
426.648
425.133
420.698
410.302
389.451
354.87
312.227
310.755
342.973
372.228
396.642
413.334
421.822
424.928
425.713
425.721
425.623
425.715
426.088
426.721
427.409
427.573
425.772
418.856
400.992
365.472
315.311
312.831
348.254
379.467
403.999
418.722
424.439
425.436
425.033
424.407
424.002
423.978
424.385
425.239
426.486
427.832
428.254
424.916
411.195
376.875
318.885
314.987
353.556
386.57
410.349
422.368
425.297
424.694
423.598
422.66
422.133
422.053
422.439
423.317
424.746
426.713
428.709
428.609
419.656
388.799
323.474
317.28
358.877
392.631
415.059
424.235
424.904
423.394
422.026
421.007
420.484
420.394
420.745
421.543
422.88
424.963
427.775
430.241
426.128
400.798
329.953
319.757
364.015
398.849
419.157
425.257
424.097
422.114
420.677
419.695
419.222
419.15
419.488
420.213
421.344
423.2
426.094
430.243
430.535
412.323
339.386
322.461
369.979
403.745
421.421
424.877
422.784
420.906
419.644
418.791
418.368
418.31
418.646
419.378
420.333
421.861
424.264
429.13
432.96
422.814
352.575
326.422
374.984
408.999
423.68
424.908
422.403
420.638
419.399
418.554
418.105
418.031
418.293
419.055
419.865
421.17
422.785
427.489
433.616
431.793
369.482
328.425
382.35
412.521
423.747
423.776
421.621
420.227
419.374
418.866
418.577
418.709
418.852
419.574
420.037
421.213
422.021
426.012
432.87
438.927
388.861
336.556
386.223
415.336
424.597
425.262
424.153
423.154
422.242
421.866
421.246
421.323
420.889
421.378
421.079
422.12
422.222
425.661
431.455
444.16
408.565
332.259
391.871
412.231
419.266
421.735
421.85
422.253
421.581
422.015
421.292
422.057
421.373
422.619
422.024
424.103
423.942
428.442
431.434
448.349
426.786
338.504
367.951
383.705
392.856
400.579
405.496
411.084
414.324
419.173
421.359
426.008
427.298
432.132
432.52
438.032
437.423
444.719
442.897
456.376
443.965
)
;

boundaryField
{
    movingWall
    {
        type            fixedValue;
        value           uniform 493;
    }
    fixedWalls
    {
        type            fixedValue;
        value           uniform 293;
    }
    frontAndBack
    {
        type            empty;
    }
}


// ************************************************************************* //
