/*--------------------------------*- C++ -*----------------------------------*\
  =========                 |
  \\      /  F ield         | OpenFOAM: The Open Source CFD Toolbox
   \\    /   O peration     | Website:  https://openfoam.org
    \\  /    A nd           | Version:  8
     \\/     M anipulation  |
\*---------------------------------------------------------------------------*/
FoamFile
{
    version     2.0;
    format      ascii;
    class       volScalarField;
    location    "0.6";
    object      T;
}
// * * * * * * * * * * * * * * * * * * * * * * * * * * * * * * * * * * * * * //

dimensions      [0 0 0 1 0 0 0];

internalField   nonuniform List<scalar> 
400
(
292.998
292.993
292.998
293.007
293.014
293.02
293.029
293.049
293.085
293.139
293.205
293.273
293.323
293.34
293.315
293.253
293.172
293.095
293.041
293.011
292.992
292.987
293.003
293.026
293.045
293.071
293.129
293.251
293.468
293.787
294.169
294.536
294.795
294.868
294.72
294.376
293.93
293.511
293.217
293.054
292.995
292.997
293.02
293.051
293.093
293.189
293.433
293.949
294.841
296.088
297.501
298.781
299.633
299.838
299.298
298.09
296.49
294.934
293.814
293.198
293.002
293.013
293.041
293.09
293.208
293.554
294.429
296.205
299.068
302.735
306.52
309.687
311.669
312.083
310.736
307.698
303.467
299.041
295.602
293.626
293.008
293.029
293.07
293.179
293.541
294.627
297.225
302.049
308.949
316.648
323.612
328.899
332.052
332.735
330.604
325.421
317.462
308.1
299.867
294.676
293.013
293.046
293.125
293.41
294.416
297.273
303.45
313.401
325.26
336.024
344.174
349.833
353.317
354.556
352.944
347.458
337.227
322.813
307.691
296.71
293.018
293.064
293.233
293.95
296.351
302.491
313.918
328.85
342.273
351.024
356.288
360.059
363.211
365.771
366.785
364.369
356
339.948
318.545
299.778
293.033
293.159
293.552
295.058
299.826
310.443
326.486
341.792
349.958
352.173
353.29
355.264
358.645
363.256
367.981
370.598
367.461
354.288
330.025
303.387
293.015
293.092
293.854
296.854
304.836
319.527
336.223
345.334
344.685
341.89
341.418
343.163
347.518
354.101
362.105
369.442
372.091
363.935
340.038
306.853
293.135
293.684
295.02
299.556
310.606
327.008
339.276
339.134
332.549
329.032
328.575
330.51
335.508
343.307
353.762
365.145
373.379
370.845
348.824
309.963
292.958
293.01
295.356
302.371
315.871
330.854
335.618
328.024
320.146
317.377
316.469
318.228
323.01
331.129
343.077
357.898
371.884
376.161
357.697
313.141
293.474
295.119
297.868
305.994
319.888
330.64
327.743
316.499
309.825
307.362
306.044
307.527
311.512
319.009
331.085
348.002
367.114
379.137
366.835
317.083
292.677
292.595
297.574
308.023
321.443
327.039
318.617
307.117
302.307
300.104
298.982
300.075
302.948
308.932
319.738
336.983
359.776
379.421
375.594
322.625
294.498
297.746
301.576
311.357
321.932
322.137
310.801
300.92
297.744
296.084
295.397
296.042
297.789
301.786
310.223
325.994
350.623
377.099
383.437
330.73
291.3
291.759
299.57
310.846
319.471
316.514
305.259
297.634
295.556
294.619
294.397
294.864
295.896
298.117
303.71
316.405
340.574
372.272
389.764
342.051
297.86
301.31
305.435
313.831
318.629
313.656
303.708
297.396
295.411
294.876
295.001
295.491
296.297
297.479
300.75
309.64
331.071
365.486
394.061
356.368
286.942
290.615
299.665
309.092
313.96
311.506
305.578
301.07
298.873
297.93
297.748
297.784
298.253
298.865
301.022
306.772
323.981
357.85
396.205
372.395
304.474
305.581
308.876
313.492
315.684
314.65
311.792
308.735
306.456
304.531
303.439
302.414
302.349
302.461
304.638
309.162
322.519
351.981
396.896
388.264
280.296
285.451
290.522
294.539
297.635
299.311
300.843
301.522
302.869
303.584
305.383
306.55
309.276
311.531
316.454
322.179
334.682
355.617
399.662
403.021
316.182
320.981
327.279
332.802
338.913
343.814
349.512
353.74
359.159
362.769
368.132
371.204
376.841
379.527
386.093
388.891
398.207
402.866
420.791
419.927
)
;

boundaryField
{
    movingWall
    {
        type            fixedValue;
        value           uniform 493;
    }
    fixedWalls
    {
        type            fixedValue;
        value           uniform 293;
    }
    frontAndBack
    {
        type            empty;
    }
}


// ************************************************************************* //
