/*--------------------------------*- C++ -*----------------------------------*\
  =========                 |
  \\      /  F ield         | OpenFOAM: The Open Source CFD Toolbox
   \\    /   O peration     | Website:  https://openfoam.org
    \\  /    A nd           | Version:  8
     \\/     M anipulation  |
\*---------------------------------------------------------------------------*/
FoamFile
{
    version     2.0;
    format      ascii;
    class       volScalarField;
    location    "3.9";
    object      p;
}
// * * * * * * * * * * * * * * * * * * * * * * * * * * * * * * * * * * * * * //

dimensions      [0 2 -2 0 0 0 0];

internalField   nonuniform List<scalar> 
400
(
1.08964e-06
-0.00582812
-0.0129665
-0.018419
-0.0204368
-0.0182432
-0.0117786
-0.00148838
0.0118328
0.0271447
0.04324
0.0588187
0.0725745
0.0833044
0.0900488
0.092263
0.0900218
0.0842398
0.0768765
0.0710629
0.00577794
-0.000221591
-0.0058077
-0.00954658
-0.0106032
-0.00843719
-0.00297453
0.00546951
0.0162983
0.0287072
0.0417454
0.0543817
0.0655822
0.0744058
0.0801161
0.0823116
0.0810731
0.0770507
0.0712699
0.0653136
0.0133318
0.00503011
-0.000999089
-0.0044271
-0.00527712
-0.00326832
0.00159779
0.00902295
0.0184974
0.0293447
0.040761
0.0518653
0.0617643
0.0696322
0.0748028
0.0768739
0.0758374
0.0720816
0.0658011
0.0575311
0.020136
0.0086923
0.00122202
-0.00267252
-0.00372626
-0.00188963
0.00272679
0.00977995
0.0187757
0.0290904
0.0399875
0.0506496
0.0602286
0.0679117
0.0729989
0.0749972
0.0737615
0.0694517
0.0615985
0.050098
0.0244985
0.00976941
0.000585898
-0.00399092
-0.00530634
-0.00351157
0.00117034
0.00833001
0.0174573
0.0279444
0.0390804
0.0500654
0.0600445
0.0681607
0.073622
0.0757933
0.0743645
0.0692853
0.059521
0.0445325
0.0251744
0.00714632
-0.00380592
-0.00906122
-0.0105162
-0.00850415
-0.00336109
0.004425
0.0143088
0.0256744
0.0378091
0.0498987
0.0610436
0.0702987
0.0767302
0.0795125
0.0781344
0.072329
0.0605346
0.0418853
0.0210899
-0.000266115
-0.0129384
-0.0187134
-0.0200339
-0.0174181
-0.0113226
-0.00232399
0.008986
0.0219716
0.035905
0.0499397
0.0631076
0.0743408
0.0825174
0.086565
0.0857162
0.0794426
0.0656158
0.043067
0.0111391
-0.013622
-0.027879
-0.0338583
-0.0346076
-0.0308616
-0.023217
-0.0123494
0.00110055
0.0164795
0.033048
0.049929
0.0660788
0.0802854
0.0911962
0.0974256
0.0978658
0.0916316
0.0758918
0.0491119
-0.00597109
-0.0342704
-0.049874
-0.0555526
-0.0550942
-0.0495187
-0.0395977
-0.0261175
-0.00976133
0.00881871
0.0288966
0.049589
0.069793
0.08815
0.103043
0.112697
0.115546
0.110187
0.0928298
0.0614069
-0.0318613
-0.0638802
-0.0804209
-0.0850112
-0.0824242
-0.0740825
-0.0609851
-0.0440408
-0.0239557
-0.00134112
0.0231413
0.0486567
0.0740912
0.0979678
0.118392
0.133121
0.139984
0.136814
0.118436
0.0819294
-0.0686716
-0.104607
-0.121349
-0.123594
-0.11752
-0.105131
-0.0877224
-0.0663297
-0.0416412
-0.0141598
0.0156014
0.046949
0.0788515
0.109789
0.137619
0.159581
0.172723
0.173774
0.155516
0.113567
-0.119407
-0.159361
-0.174919
-0.172761
-0.161152
-0.142933
-0.119763
-0.0927811
-0.0625816
-0.0294518
0.00636901
0.0444694
0.0840511
0.123699
0.161132
0.193082
0.215664
0.224073
0.208046
0.160628
-0.188632
-0.232246
-0.243943
-0.233952
-0.213698
-0.187158
-0.156376
-0.122505
-0.0859018
-0.0464761
-0.00401839
0.0415349
0.0898383
0.139825
0.189315
0.234685
0.271071
0.29166
0.281739
0.229772
-0.283978
-0.329308
-0.331835
-0.308284
-0.274712
-0.236443
-0.195768
-0.153613
-0.109844
-0.0637487
-0.0144415
0.0388599
0.0965507
0.158273
0.222371
0.285284
0.341394
0.381572
0.384911
0.331831
-0.419322
-0.459674
-0.442354
-0.395795
-0.342132
-0.287742
-0.234619
-0.182933
-0.131612
-0.0789879
-0.023217
0.0374722
0.10455
0.178835
0.259858
0.344967
0.428613
0.499697
0.529672
0.485388
-0.620534
-0.636746
-0.57868
-0.494196
-0.411243
-0.335661
-0.267783
-0.20598
-0.147539
-0.0893854
-0.0284285
0.0383458
0.113804
0.200469
0.299973
0.412023
0.533027
0.651772
0.732769
0.722393
-0.935926
-0.878517
-0.741744
-0.59795
-0.474395
-0.372661
-0.28887
-0.217765
-0.153955
-0.0924659
-0.0287194
0.0416936
0.123261
0.220716
0.338924
0.482153
0.651995
0.841339
1.01527
1.0975
-1.47643
-1.20663
-0.920505
-0.69139
-0.517307
-0.387546
-0.290063
-0.213339
-0.148126
-0.0872174
-0.0245795
0.0454556
0.128935
0.233069
0.367101
0.542676
0.771291
1.05932
1.40329
1.73014
-2.53965
-1.63055
-1.04444
-0.71096
-0.495752
-0.352095
-0.254532
-0.183585
-0.126171
-0.073597
-0.0192709
0.0427849
0.11921
0.218781
0.35481
0.547982
0.826391
1.23658
1.91168
2.92419
-4.36667
-2.04464
-0.973544
-0.563182
-0.357848
-0.240148
-0.170121
-0.123785
-0.087483
-0.0535121
-0.0166564
0.0276586
0.0846054
0.161728
0.272409
0.442097
0.718217
1.22571
2.41103
4.84853
)
;

boundaryField
{
    movingWall
    {
        type            zeroGradient;
    }
    fixedWalls
    {
        type            zeroGradient;
    }
    frontAndBack
    {
        type            empty;
    }
}


// ************************************************************************* //
