/*--------------------------------*- C++ -*----------------------------------*\
  =========                 |
  \\      /  F ield         | OpenFOAM: The Open Source CFD Toolbox
   \\    /   O peration     | Website:  https://openfoam.org
    \\  /    A nd           | Version:  8
     \\/     M anipulation  |
\*---------------------------------------------------------------------------*/
FoamFile
{
    version     2.0;
    format      ascii;
    class       volScalarField;
    location    "3.9";
    object      T;
}
// * * * * * * * * * * * * * * * * * * * * * * * * * * * * * * * * * * * * * //

dimensions      [0 0 0 1 0 0 0];

internalField   nonuniform List<scalar> 
400
(
293.68
295.004
296.296
297.612
298.974
300.343
301.638
302.784
303.721
304.404
304.795
304.86
304.568
303.9
302.85
301.44
299.732
297.83
295.863
293.939
295.091
299.161
303.159
307.266
311.525
315.753
319.665
323.017
325.652
327.47
328.398
328.372
327.335
325.245
322.09
317.923
312.897
307.294
301.484
295.781
296.6
303.575
310.445
317.504
324.756
331.8
338.117
343.352
347.329
349.97
351.222
351.026
349.3
345.955
340.919
334.205
326
316.743
307.085
297.6
298.198
308.217
318.095
328.193
338.361
347.901
356.104
362.625
367.401
370.476
371.888
371.613
369.542
365.48
359.193
350.507
339.483
326.634
312.959
299.483
299.863
313.014
325.967
339.058
351.84
363.266
372.547
379.523
384.4
387.451
388.87
388.697
386.793
382.819
376.279
366.625
353.528
337.325
319.376
301.51
301.575
317.897
333.908
349.788
364.641
377.072
386.393
392.852
397.071
399.621
400.877
400.955
399.693
396.624
390.96
381.66
367.706
348.814
326.46
303.713
303.32
322.809
341.769
360.072
376.226
388.574
396.81
401.832
404.764
406.46
407.424
407.827
407.506
405.924
402.085
394.473
381.199
360.812
334.243
306.094
305.093
327.728
349.456
369.632
386.122
397.232
403.394
406.355
407.694
408.411
409.051
409.794
410.497
410.637
409.16
404.246
393.176
372.91
342.783
308.645
306.876
332.548
356.74
378.167
393.985
402.818
406.269
406.978
406.76
406.585
406.94
407.981
409.607
411.384
412.357
410.654
402.988
384.626
352.163
311.38
308.707
337.429
363.784
385.593
399.645
405.435
405.998
404.653
403.139
402.26
402.391
403.65
405.986
409.104
412.265
413.793
410.23
395.415
362.412
314.372
310.514
341.973
369.966
391.501
403.051
405.48
403.394
400.425
397.961
396.588
396.553
397.938
400.734
404.795
409.662
414.053
414.764
404.747
373.417
317.847
312.466
346.833
376.13
396.347
404.55
403.553
399.33
395.25
392.17
390.494
390.343
391.776
394.803
399.398
405.392
412.005
416.699
412.193
384.883
322.318
314.352
351.058
380.875
399.284
404.051
400.223
394.627
389.919
386.506
384.678
384.455
385.887
388.978
393.757
400.294
408.328
416.34
417.487
396.348
328.647
316.719
356.009
386.082
401.69
402.718
396.531
390.102
385.088
381.563
379.691
379.429
380.832
383.892
388.601
395.183
403.769
414.146
420.539
407.245
337.873
318.607
360.207
389.292
401.879
399.865
392.517
386.125
381.303
377.947
376.14
375.858
377.176
380.133
384.584
390.843
399.145
410.725
421.438
416.995
350.767
322.844
365.407
393.539
402.555
398.053
390.351
384.319
379.819
376.725
375.036
374.737
375.827
378.516
382.444
388.09
395.374
406.879
420.453
425.111
367.26
323.033
370.045
394.986
400.785
395.598
389.039
384.217
380.842
378.646
377.456
377.434
378.22
380.396
383.287
387.939
393.574
403.774
418.138
431.291
386.092
332.293
374.825
397.728
401.993
398.605
394.384
391.095
388.581
387.142
385.985
385.95
385.922
387.275
388.52
391.792
395.263
403.373
415.762
435.647
405.155
325.183
376.962
393.756
398.458
399.227
398.174
397.724
396.544
396.624
395.824
396.603
396.231
397.886
398.117
401.223
402.852
409.712
416.871
439.635
422.799
335.467
361.529
375.776
384.162
391.38
396.053
401.434
404.635
409.397
411.659
416.288
417.757
422.633
423.338
428.999
428.971
436.68
436.065
450.483
440.014
)
;

boundaryField
{
    movingWall
    {
        type            fixedValue;
        value           uniform 493;
    }
    fixedWalls
    {
        type            fixedValue;
        value           uniform 293;
    }
    frontAndBack
    {
        type            empty;
    }
}


// ************************************************************************* //
