/*--------------------------------*- C++ -*----------------------------------*\
  =========                 |
  \\      /  F ield         | OpenFOAM: The Open Source CFD Toolbox
   \\    /   O peration     | Website:  https://openfoam.org
    \\  /    A nd           | Version:  8
     \\/     M anipulation  |
\*---------------------------------------------------------------------------*/
FoamFile
{
    version     2.0;
    format      ascii;
    class       volScalarField;
    location    "6.2";
    object      p;
}
// * * * * * * * * * * * * * * * * * * * * * * * * * * * * * * * * * * * * * //

dimensions      [0 2 -2 0 0 0 0];

internalField   nonuniform List<scalar> 
400
(
4.44977e-07
-0.00582923
-0.0129677
-0.0184202
-0.0204379
-0.0182443
-0.0117799
-0.00148967
0.0118314
0.0271434
0.0432388
0.0588176
0.0725734
0.0833033
0.0900476
0.0922617
0.0900205
0.0842385
0.0768752
0.0710616
0.00577686
-0.000222772
-0.00580893
-0.00954781
-0.0106044
-0.00843835
-0.00297567
0.00546833
0.0162971
0.0287059
0.0417441
0.0543804
0.065581
0.0744046
0.080115
0.0823105
0.0810719
0.0770494
0.0712686
0.0653123
0.0133306
0.00502894
-0.00100032
-0.00442837
-0.00527838
-0.00326953
0.00159666
0.00902184
0.0184963
0.0293435
0.0407597
0.051864
0.061763
0.0696309
0.0748016
0.0768727
0.0758362
0.0720804
0.0657999
0.0575298
0.0201348
0.00869114
0.00122083
-0.00267378
-0.00372757
-0.00189091
0.00272558
0.00977883
0.0187746
0.0290893
0.0399862
0.0506483
0.0602273
0.0679104
0.0729977
0.074996
0.0737603
0.0694505
0.0615973
0.0500967
0.0244973
0.00976826
0.000584758
-0.00399211
-0.00530763
-0.00351291
0.00116904
0.00832881
0.0174562
0.0279433
0.0390792
0.0500642
0.0600432
0.0681594
0.0736207
0.0757921
0.0743634
0.0692841
0.0595198
0.0445312
0.0251731
0.00714512
-0.00380704
-0.00906235
-0.0105174
-0.00850546
-0.00336244
0.00442369
0.0143076
0.0256732
0.037808
0.0498976
0.0610424
0.0702974
0.0767289
0.0795112
0.0781332
0.0723278
0.0605335
0.0418841
0.0210886
-0.000267371
-0.0129396
-0.0187145
-0.020035
-0.0174193
-0.0113239
-0.00232535
0.00898469
0.0219704
0.0359039
0.0499386
0.0631065
0.0743396
0.0825161
0.0865637
0.0857149
0.0794413
0.0656146
0.0430658
0.0111378
-0.0136233
-0.0278802
-0.0338594
-0.0346087
-0.0308628
-0.0232183
-0.0123507
0.00109919
0.0164782
0.0330468
0.0499279
0.0660777
0.0802842
0.091195
0.0974243
0.0978645
0.0916303
0.0758905
0.0491107
-0.0059723
-0.0342717
-0.0498753
-0.0555539
-0.0550954
-0.0495198
-0.0395988
-0.0261187
-0.00976265
0.00881735
0.0288953
0.0495878
0.0697918
0.0881489
0.103042
0.112696
0.115545
0.110186
0.0928286
0.0614057
-0.0318624
-0.0638814
-0.0804223
-0.0850125
-0.0824254
-0.0740836
-0.0609862
-0.0440419
-0.0239569
-0.00134243
0.02314
0.0486554
0.07409
0.0979667
0.11839
0.13312
0.139983
0.136812
0.118435
0.0819282
-0.0686726
-0.104609
-0.12135
-0.123595
-0.117521
-0.105132
-0.0877235
-0.0663308
-0.0416423
-0.014161
0.0156001
0.0469477
0.0788502
0.109788
0.137618
0.15958
0.172721
0.173773
0.155515
0.113565
-0.119408
-0.159362
-0.17492
-0.172762
-0.161153
-0.142934
-0.119764
-0.0927822
-0.0625827
-0.0294529
0.00636783
0.0444682
0.0840498
0.123698
0.161131
0.193081
0.215663
0.224072
0.208045
0.160627
-0.188634
-0.232247
-0.243944
-0.233953
-0.213699
-0.187159
-0.156377
-0.122506
-0.085903
-0.0464772
-0.00401951
0.0415338
0.089837
0.139824
0.189314
0.234684
0.271069
0.291659
0.281738
0.229771
-0.283979
-0.329309
-0.331836
-0.308285
-0.274713
-0.236444
-0.195769
-0.153615
-0.109845
-0.0637499
-0.0144426
0.0388587
0.0965496
0.158272
0.222369
0.285283
0.341392
0.38157
0.384909
0.331829
-0.419323
-0.459676
-0.442355
-0.395796
-0.342133
-0.287744
-0.23462
-0.182934
-0.131614
-0.0789892
-0.0232183
0.0374711
0.104549
0.178834
0.259857
0.344966
0.428612
0.499696
0.529671
0.485387
-0.620536
-0.636748
-0.578681
-0.494197
-0.411244
-0.335662
-0.267784
-0.205981
-0.14754
-0.0893867
-0.0284298
0.0383446
0.113803
0.200468
0.299971
0.412021
0.533026
0.651771
0.732768
0.722392
-0.935927
-0.878518
-0.741745
-0.597952
-0.474396
-0.372662
-0.288872
-0.217766
-0.153957
-0.0924672
-0.0287206
0.0416923
0.12326
0.220715
0.338923
0.482151
0.651993
0.841338
1.01527
1.0975
-1.47643
-1.20663
-0.920506
-0.691391
-0.517308
-0.387547
-0.290064
-0.21334
-0.148127
-0.0872185
-0.0245807
0.0454543
0.128934
0.233068
0.3671
0.542675
0.77129
1.05931
1.40328
1.73014
-2.53965
-1.63055
-1.04444
-0.710962
-0.495753
-0.352096
-0.254534
-0.183586
-0.126172
-0.0735981
-0.0192721
0.0427837
0.119209
0.218779
0.354809
0.547981
0.82639
1.23658
1.91167
2.92419
-4.36667
-2.04464
-0.973545
-0.563183
-0.357849
-0.240149
-0.170122
-0.123786
-0.0874842
-0.0535133
-0.0166576
0.0276575
0.0846042
0.161726
0.272408
0.442096
0.718216
1.22571
2.41103
4.84853
)
;

boundaryField
{
    movingWall
    {
        type            zeroGradient;
    }
    fixedWalls
    {
        type            zeroGradient;
    }
    frontAndBack
    {
        type            empty;
    }
}


// ************************************************************************* //
