/*--------------------------------*- C++ -*----------------------------------*\
  =========                 |
  \\      /  F ield         | OpenFOAM: The Open Source CFD Toolbox
   \\    /   O peration     | Website:  https://openfoam.org
    \\  /    A nd           | Version:  8
     \\/     M anipulation  |
\*---------------------------------------------------------------------------*/
FoamFile
{
    version     2.0;
    format      ascii;
    class       volScalarField;
    location    "8.5";
    object      p;
}
// * * * * * * * * * * * * * * * * * * * * * * * * * * * * * * * * * * * * * //

dimensions      [0 2 -2 0 0 0 0];

internalField   nonuniform List<scalar> 
400
(
1.82957e-07
-0.00582966
-0.0129682
-0.0184207
-0.0204385
-0.0182449
-0.0117804
-0.0014901
0.0118311
0.027143
0.0432383
0.058817
0.0725727
0.0833026
0.0900471
0.0922613
0.0900201
0.0842381
0.0768748
0.0710612
0.0057764
-0.000223229
-0.00580937
-0.00954827
-0.0106049
-0.00843891
-0.00297625
0.00546779
0.0162966
0.0287055
0.0417437
0.0543799
0.0655805
0.074404
0.0801144
0.0823099
0.0810714
0.0770489
0.0712682
0.0653119
0.0133301
0.00502844
-0.00100077
-0.00442878
-0.00527881
-0.00327003
0.00159607
0.00902122
0.0184957
0.029343
0.0407593
0.0518636
0.0617626
0.0696304
0.0748011
0.0768721
0.0758356
0.0720799
0.0657994
0.0575294
0.0201343
0.0086906
0.00122033
-0.00267421
-0.00372796
-0.00189133
0.00272507
0.00977822
0.018774
0.0290887
0.0399857
0.0506479
0.0602269
0.06791
0.0729972
0.0749955
0.0737597
0.06945
0.0615968
0.0500963
0.0244968
0.0097677
0.000584187
-0.00399262
-0.00530804
-0.00351327
0.00116864
0.00832829
0.0174556
0.0279427
0.0390787
0.0500637
0.0600428
0.068159
0.0736203
0.0757916
0.0743628
0.0692835
0.0595193
0.0445307
0.0251727
0.0071446
-0.00380764
-0.00906294
-0.010518
-0.00850585
-0.00336279
0.00442329
0.0143071
0.0256726
0.0378074
0.049897
0.0610419
0.070297
0.0767285
0.0795107
0.0781327
0.0723273
0.0605329
0.0418836
0.0210882
-0.000267832
-0.0129401
-0.0187151
-0.0200356
-0.0174198
-0.0113243
-0.00232569
0.0089843
0.0219699
0.0359033
0.049938
0.0631059
0.074339
0.0825157
0.0865633
0.0857145
0.0794409
0.065614
0.0430653
0.0111374
-0.0136237
-0.0278807
-0.03386
-0.0346094
-0.0308634
-0.0232187
-0.0123511
0.00109885
0.0164778
0.0330463
0.0499273
0.0660771
0.0802836
0.0911945
0.0974239
0.0978641
0.0916299
0.07589
0.0491102
-0.00597281
-0.0342721
-0.0498757
-0.0555543
-0.055096
-0.0495205
-0.0395994
-0.0261192
-0.00976304
0.00881701
0.0288949
0.0495873
0.0697913
0.0881483
0.103041
0.112695
0.115544
0.110186
0.0928281
0.0614052
-0.031863
-0.0638819
-0.0804226
-0.0850129
-0.0824259
-0.0740842
-0.0609868
-0.0440426
-0.0239574
-0.00134283
0.0231396
0.048655
0.0740895
0.0979661
0.11839
0.13312
0.139982
0.136812
0.118435
0.0819277
-0.0686733
-0.104609
-0.12135
-0.123596
-0.117521
-0.105132
-0.0877242
-0.0663314
-0.0416429
-0.0141615
0.0155997
0.0469473
0.0788498
0.109788
0.137618
0.15958
0.172721
0.173772
0.155515
0.113565
-0.119408
-0.159363
-0.174921
-0.172763
-0.161153
-0.142935
-0.119765
-0.0927828
-0.0625833
-0.0294535
0.00636729
0.0444677
0.0840493
0.123697
0.16113
0.19308
0.215662
0.224071
0.208045
0.160627
-0.188634
-0.232248
-0.243944
-0.233953
-0.2137
-0.18716
-0.156378
-0.122507
-0.0859035
-0.0464778
-0.00402011
0.0415332
0.0898366
0.139824
0.189313
0.234684
0.271069
0.291659
0.281737
0.22977
-0.28398
-0.32931
-0.331837
-0.308285
-0.274714
-0.236445
-0.195769
-0.153615
-0.109845
-0.0637504
-0.0144432
0.0388581
0.096549
0.158271
0.222369
0.285283
0.341392
0.38157
0.384909
0.331829
-0.419324
-0.459676
-0.442355
-0.395797
-0.342134
-0.287744
-0.23462
-0.182934
-0.131614
-0.0789897
-0.0232188
0.0374705
0.104548
0.178833
0.259856
0.344965
0.428611
0.499695
0.52967
0.485387
-0.620536
-0.636748
-0.578681
-0.494197
-0.411245
-0.335662
-0.267785
-0.205982
-0.147541
-0.0893871
-0.0284302
0.0383441
0.113803
0.200467
0.299971
0.412021
0.533025
0.651771
0.732767
0.722391
-0.935928
-0.878519
-0.741745
-0.597952
-0.474397
-0.372663
-0.288872
-0.217766
-0.153957
-0.0924676
-0.0287211
0.0416919
0.12326
0.220714
0.338922
0.482151
0.651993
0.841338
1.01527
1.0975
-1.47643
-1.20663
-0.920507
-0.691391
-0.517308
-0.387547
-0.290065
-0.213341
-0.148127
-0.0872191
-0.0245812
0.0454539
0.128934
0.233067
0.367099
0.542674
0.771289
1.05931
1.40328
1.73014
-2.53965
-1.63055
-1.04444
-0.710962
-0.495754
-0.352096
-0.254534
-0.183587
-0.126173
-0.0735987
-0.0192727
0.0427832
0.119209
0.218779
0.354808
0.54798
0.826389
1.23658
1.91167
2.92419
-4.36667
-2.04464
-0.973545
-0.563184
-0.357849
-0.24015
-0.170123
-0.123786
-0.0874847
-0.0535138
-0.0166581
0.0276569
0.0846037
0.161726
0.272407
0.442095
0.718215
1.2257
2.41103
4.84853
)
;

boundaryField
{
    movingWall
    {
        type            zeroGradient;
    }
    fixedWalls
    {
        type            zeroGradient;
    }
    frontAndBack
    {
        type            empty;
    }
}


// ************************************************************************* //
