/*--------------------------------*- C++ -*----------------------------------*\
  =========                 |
  \\      /  F ield         | OpenFOAM: The Open Source CFD Toolbox
   \\    /   O peration     | Website:  https://openfoam.org
    \\  /    A nd           | Version:  8
     \\/     M anipulation  |
\*---------------------------------------------------------------------------*/
FoamFile
{
    version     2.0;
    format      ascii;
    class       volScalarField;
    location    "1";
    object      T;
}
// * * * * * * * * * * * * * * * * * * * * * * * * * * * * * * * * * * * * * //

dimensions      [0 0 0 1 0 0 0];

internalField   nonuniform List<scalar> 
400
(
293.005
293.017
293.05
293.133
293.311
293.633
294.12
294.735
295.397
296.01
296.498
296.803
296.891
296.741
296.358
295.779
295.075
294.354
293.72
293.218
293.016
293.068
293.21
293.568
294.336
295.695
297.666
300.031
302.425
304.516
306.081
306.987
307.151
306.535
305.151
303.097
300.592
297.984
295.655
293.799
293.04
293.179
293.56
294.52
296.529
299.93
304.567
309.724
314.553
318.492
321.289
322.824
323.012
321.777
319.082
315.003
309.847
304.246
299.048
294.814
293.09
293.406
294.274
296.423
300.729
307.545
316.023
324.464
331.524
336.791
340.318
342.184
342.37
340.73
337.042
331.135
323.134
313.769
304.436
296.447
293.184
293.821
295.562
299.728
307.556
318.793
330.999
341.258
348.514
353.355
356.452
358.165
358.53
357.262
353.812
347.508
337.886
325.287
311.403
298.622
293.341
294.505
297.62
304.692
316.855
332.087
345.627
354.353
359.172
362.104
364.135
365.719
366.798
366.906
365.145
360.27
350.963
336.665
318.84
301.022
293.581
295.514
300.52
311.149
327.418
344.337
355.435
359.815
361.365
362.484
363.841
365.792
368.102
370.238
371.08
368.919
361.527
347.038
326.085
303.374
293.929
296.942
304.29
318.514
337.417
352.725
358.494
358.215
357.51
357.55
358.732
361.244
364.861
369.131
372.95
374.312
370.149
356.888
333.47
305.667
294.337
298.485
308.346
325.844
345.265
356.068
355.746
352.243
350.316
349.585
350.663
353.48
358.115
364.213
370.972
376.317
376.604
366.345
341.566
308.054
294.982
300.981
313.418
332.714
350.076
354.687
349.223
344.108
341.351
339.984
340.864
343.683
348.903
356.28
365.499
374.745
380.219
374.778
350.517
310.684
295.381
302.195
317.002
337.613
351.469
349.738
340.88
335.267
331.826
330.065
330.635
333.25
338.575
346.593
357.473
370.028
380.774
381.515
360.134
313.781
296.564
306.378
322.767
342.137
350.412
342.716
332.208
326.691
322.76
320.846
321.018
323.299
328.304
336.335
347.951
362.845
378.384
386.068
370.057
317.818
296.507
305.939
324.43
342.825
346.027
334.516
324.185
319.066
314.926
313.009
312.779
314.655
319.089
326.612
338.07
354.077
373.415
388.133
379.768
323.585
298.961
312.666
330.467
344.997
342.124
327.642
317.843
312.903
308.786
306.894
306.328
307.771
311.6
318.335
328.939
344.765
366.476
387.628
388.661
332.025
297.024
309.416
329.341
341.46
334.751
320.055
312.107
308.039
304.493
302.682
301.9
302.92
306.25
312.188
321.578
336.066
358.412
384.698
396.13
343.798
303.64
319.351
335.847
342.887
332.438
317.939
310.798
306.722
303.154
300.979
300.007
300.695
303.635
308.842
316.98
329.309
350.414
379.769
401.686
358.744
295.545
312.684
330.828
336.015
325.751
313.527
307.376
304.372
302.381
301.341
301.399
302.5
305.308
309.594
316.406
326.155
344.317
373.801
405.131
375.593
311.493
326.018
339.346
342.127
334.836
325.969
319.889
316.064
313.902
312.527
312.425
312.782
314.676
317.193
322.213
329.195
343.438
369.128
407.016
392.408
291.84
311.45
323.793
329.215
330.295
329.192
328.546
327.603
327.86
327.703
328.972
329.659
332.194
334.164
338.992
344.072
355.418
372.504
410.298
408.038
320.791
331.387
340.583
347.433
354.066
358.94
364.478
368.334
373.452
376.592
381.638
384.186
389.519
391.603
397.849
399.834
408.64
411.784
428.625
425.111
)
;

boundaryField
{
    movingWall
    {
        type            fixedValue;
        value           uniform 493;
    }
    fixedWalls
    {
        type            fixedValue;
        value           uniform 293;
    }
    frontAndBack
    {
        type            empty;
    }
}


// ************************************************************************* //
