/*--------------------------------*- C++ -*----------------------------------*\
  =========                 |
  \\      /  F ield         | OpenFOAM: The Open Source CFD Toolbox
   \\    /   O peration     | Website:  https://openfoam.org
    \\  /    A nd           | Version:  8
     \\/     M anipulation  |
\*---------------------------------------------------------------------------*/
FoamFile
{
    version     2.0;
    format      ascii;
    class       volScalarField;
    location    "8.1";
    object      p;
}
// * * * * * * * * * * * * * * * * * * * * * * * * * * * * * * * * * * * * * //

dimensions      [0 2 -2 0 0 0 0];

internalField   nonuniform List<scalar> 
400
(
2.12868e-07
-0.00582961
-0.0129681
-0.0184206
-0.0204384
-0.0182448
-0.0117803
-0.00149012
0.0118311
0.027143
0.0432384
0.0588172
0.0725729
0.0833027
0.0900471
0.0922612
0.0900201
0.0842381
0.0768749
0.0710613
0.00577645
-0.000223197
-0.00580934
-0.00954821
-0.0106048
-0.00843879
-0.00297616
0.00546783
0.0162966
0.0287055
0.0417437
0.05438
0.0655806
0.0744042
0.0801145
0.08231
0.0810714
0.0770489
0.0712682
0.065312
0.0133302
0.00502848
-0.00100076
-0.00442877
-0.00527876
-0.00326991
0.00159622
0.00902134
0.0184958
0.029343
0.0407593
0.0518636
0.0617626
0.0696306
0.0748012
0.0768722
0.0758357
0.0720799
0.0657994
0.0575294
0.0201344
0.00869067
0.00122035
-0.00267423
-0.00372796
-0.00189127
0.00272521
0.00977839
0.0187741
0.0290887
0.0399857
0.0506479
0.0602269
0.0679101
0.0729973
0.0749956
0.0737598
0.06945
0.0615968
0.0500963
0.0244969
0.00976781
0.000584259
-0.00399261
-0.00530808
-0.00351328
0.00116871
0.00832844
0.0174558
0.0279428
0.0390787
0.0500637
0.0600427
0.068159
0.0736204
0.0757917
0.0743629
0.0692836
0.0595193
0.0445308
0.0251727
0.00714471
-0.00380751
-0.00906287
-0.010518
-0.0085059
-0.00336281
0.00442337
0.0143072
0.0256728
0.0378075
0.049897
0.0610419
0.0702969
0.0767285
0.0795108
0.0781328
0.0723274
0.060533
0.0418836
0.0210882
-0.000267747
-0.01294
-0.0187149
-0.0200356
-0.0174198
-0.0113243
-0.00232571
0.00898437
0.0219701
0.0359035
0.0499381
0.0631059
0.074339
0.0825157
0.0865633
0.0857146
0.0794409
0.0656142
0.0430654
0.0111373
-0.0136237
-0.0278806
-0.0338598
-0.0346092
-0.0308633
-0.0232188
-0.0123512
0.00109883
0.0164778
0.0330465
0.0499275
0.0660772
0.0802837
0.0911945
0.0974238
0.0978641
0.0916299
0.0758901
0.0491103
-0.00597282
-0.0342721
-0.0498757
-0.0555542
-0.0550958
-0.0495203
-0.0395994
-0.0261193
-0.0097631
0.00881699
0.028895
0.0495874
0.0697914
0.0881484
0.103041
0.112695
0.115544
0.110186
0.0928282
0.0614053
-0.0318629
-0.0638819
-0.0804227
-0.0850128
-0.0824258
-0.074084
-0.0609867
-0.0440425
-0.0239575
-0.00134289
0.0231396
0.048655
0.0740896
0.0979663
0.11839
0.13312
0.139983
0.136812
0.118435
0.0819278
-0.0686732
-0.104609
-0.12135
-0.123596
-0.117521
-0.105132
-0.087724
-0.0663313
-0.0416429
-0.0141615
0.0155996
0.0469473
0.0788499
0.109788
0.137618
0.15958
0.172721
0.173772
0.155515
0.113565
-0.119408
-0.159363
-0.174921
-0.172763
-0.161153
-0.142934
-0.119765
-0.0927827
-0.0625831
-0.0294534
0.0063673
0.0444677
0.0840493
0.123697
0.16113
0.19308
0.215662
0.224071
0.208045
0.160627
-0.188634
-0.232248
-0.243944
-0.233953
-0.2137
-0.18716
-0.156378
-0.122507
-0.0859034
-0.0464777
-0.00402002
0.0415332
0.0898366
0.139824
0.189313
0.234684
0.271069
0.291659
0.281737
0.22977
-0.28398
-0.32931
-0.331837
-0.308285
-0.274714
-0.236445
-0.195769
-0.153615
-0.109845
-0.0637503
-0.014443
0.0388582
0.0965491
0.158271
0.222369
0.285283
0.341392
0.38157
0.384909
0.331829
-0.419324
-0.459676
-0.442355
-0.395797
-0.342134
-0.287744
-0.23462
-0.182934
-0.131614
-0.0789896
-0.0232186
0.0374706
0.104548
0.178833
0.259856
0.344965
0.428611
0.499695
0.52967
0.485387
-0.620536
-0.636748
-0.578681
-0.494197
-0.411245
-0.335662
-0.267784
-0.205982
-0.147541
-0.0893871
-0.0284302
0.0383442
0.113803
0.200467
0.299971
0.412021
0.533025
0.651771
0.732767
0.722391
-0.935928
-0.878519
-0.741745
-0.597952
-0.474396
-0.372663
-0.288872
-0.217766
-0.153957
-0.0924676
-0.0287211
0.0416919
0.12326
0.220714
0.338922
0.482151
0.651993
0.841338
1.01527
1.0975
-1.47643
-1.20663
-0.920507
-0.691391
-0.517308
-0.387547
-0.290064
-0.213341
-0.148127
-0.087219
-0.0245812
0.0454539
0.128934
0.233067
0.3671
0.542674
0.771289
1.05931
1.40328
1.73014
-2.53965
-1.63055
-1.04444
-0.710962
-0.495754
-0.352096
-0.254534
-0.183586
-0.126173
-0.0735986
-0.0192726
0.0427833
0.119209
0.218779
0.354809
0.54798
0.826389
1.23658
1.91167
2.92419
-4.36667
-2.04464
-0.973545
-0.563184
-0.357849
-0.24015
-0.170123
-0.123786
-0.0874846
-0.0535137
-0.016658
0.027657
0.0846038
0.161726
0.272408
0.442095
0.718215
1.2257
2.41103
4.84853
)
;

boundaryField
{
    movingWall
    {
        type            zeroGradient;
    }
    fixedWalls
    {
        type            zeroGradient;
    }
    frontAndBack
    {
        type            empty;
    }
}


// ************************************************************************* //
