/*--------------------------------*- C++ -*----------------------------------*\
  =========                 |
  \\      /  F ield         | OpenFOAM: The Open Source CFD Toolbox
   \\    /   O peration     | Website:  https://openfoam.org
    \\  /    A nd           | Version:  8
     \\/     M anipulation  |
\*---------------------------------------------------------------------------*/
FoamFile
{
    version     2.0;
    format      ascii;
    class       volScalarField;
    location    "4.7";
    object      p;
}
// * * * * * * * * * * * * * * * * * * * * * * * * * * * * * * * * * * * * * //

dimensions      [0 2 -2 0 0 0 0];

internalField   nonuniform List<scalar> 
400
(
7.94215e-07
-0.00582864
-0.012967
-0.0184196
-0.0204373
-0.0182437
-0.0117792
-0.00148901
0.0118321
0.027144
0.0432395
0.0588183
0.072574
0.0833039
0.0900483
0.0922624
0.0900211
0.0842391
0.0768759
0.0710623
0.00577745
-0.000222144
-0.00580829
-0.00954716
-0.0106038
-0.00843768
-0.002975
0.00546899
0.0162977
0.0287066
0.0417447
0.0543811
0.0655817
0.0744053
0.0801157
0.0823111
0.0810726
0.0770501
0.0712693
0.065313
0.0133313
0.00502958
-0.000999679
-0.00442773
-0.00527773
-0.00326886
0.00159733
0.00902251
0.0184969
0.0293441
0.0407603
0.0518646
0.0617636
0.0696316
0.0748023
0.0768734
0.0758369
0.0720811
0.0658006
0.0575305
0.0201355
0.0086918
0.00122148
-0.00267314
-0.00372693
-0.00189026
0.00272625
0.00977951
0.0187753
0.0290899
0.0399869
0.0506489
0.0602279
0.0679111
0.0729984
0.0749967
0.073761
0.0694512
0.061598
0.0500974
0.024498
0.00976893
0.000585419
-0.00399146
-0.00530699
-0.00351226
0.0011697
0.00832948
0.0174569
0.027944
0.0390799
0.0500648
0.0600438
0.06816
0.0736214
0.0757928
0.074364
0.0692848
0.0595205
0.0445319
0.0251737
0.0071458
-0.00380637
-0.00906168
-0.0105168
-0.00850482
-0.0033618
0.00442435
0.0143083
0.0256739
0.0378087
0.0498982
0.061043
0.070298
0.0767296
0.0795118
0.0781339
0.0723285
0.0605342
0.0418848
0.0210892
-0.000266703
-0.0129389
-0.0187138
-0.0200344
-0.0174186
-0.0113233
-0.00232471
0.00898535
0.0219711
0.0359046
0.0499393
0.0631071
0.0743402
0.0825168
0.0865644
0.0857156
0.079442
0.0656152
0.0430665
0.0111384
-0.0136227
-0.0278795
-0.0338587
-0.034608
-0.0308621
-0.0232176
-0.0123501
0.00109983
0.0164788
0.0330475
0.0499286
0.0660784
0.0802849
0.0911957
0.097425
0.0978652
0.091631
0.0758912
0.0491114
-0.00597166
-0.0342711
-0.0498747
-0.0555532
-0.0550947
-0.0495191
-0.0395981
-0.0261181
-0.00976202
0.00881799
0.028896
0.0495885
0.0697925
0.0881496
0.103043
0.112696
0.115546
0.110187
0.0928292
0.0614064
-0.0318617
-0.0638808
-0.0804216
-0.0850119
-0.0824247
-0.0740829
-0.0609855
-0.0440413
-0.0239563
-0.00134179
0.0231406
0.048656
0.0740906
0.0979673
0.118391
0.133121
0.139984
0.136813
0.118436
0.0819288
-0.068672
-0.104608
-0.121349
-0.123595
-0.11752
-0.105131
-0.0877229
-0.0663301
-0.0416417
-0.0141604
0.0156007
0.0469483
0.0788509
0.109789
0.137619
0.159581
0.172722
0.173773
0.155516
0.113566
-0.119407
-0.159362
-0.174919
-0.172762
-0.161152
-0.142933
-0.119763
-0.0927815
-0.062582
-0.0294522
0.00636849
0.0444688
0.0840504
0.123698
0.161132
0.193081
0.215663
0.224072
0.208046
0.160628
-0.188633
-0.232246
-0.243943
-0.233952
-0.213699
-0.187159
-0.156377
-0.122506
-0.0859023
-0.0464765
-0.00401884
0.0415344
0.0898377
0.139825
0.189314
0.234685
0.27107
0.29166
0.281738
0.229771
-0.283979
-0.329309
-0.331836
-0.308284
-0.274713
-0.236444
-0.195768
-0.153614
-0.109844
-0.0637492
-0.0144419
0.0388594
0.0965502
0.158272
0.22237
0.285284
0.341393
0.381571
0.38491
0.33183
-0.419323
-0.459675
-0.442354
-0.395796
-0.342133
-0.287743
-0.234619
-0.182933
-0.131613
-0.0789885
-0.0232176
0.0374717
0.10455
0.178834
0.259858
0.344967
0.428613
0.499696
0.529671
0.485388
-0.620535
-0.636747
-0.57868
-0.494196
-0.411243
-0.335661
-0.267783
-0.205981
-0.14754
-0.089386
-0.0284291
0.0383452
0.113804
0.200469
0.299972
0.412022
0.533026
0.651772
0.732768
0.722392
-0.935927
-0.878518
-0.741744
-0.597951
-0.474395
-0.372662
-0.288871
-0.217765
-0.153956
-0.0924665
-0.02872
0.041693
0.123261
0.220715
0.338923
0.482152
0.651994
0.841339
1.01527
1.0975
-1.47643
-1.20663
-0.920506
-0.69139
-0.517307
-0.387546
-0.290063
-0.213339
-0.148126
-0.0872179
-0.0245801
0.045455
0.128935
0.233068
0.367101
0.542676
0.77129
1.05932
1.40328
1.73014
-2.53965
-1.63055
-1.04444
-0.710961
-0.495753
-0.352095
-0.254533
-0.183585
-0.126171
-0.0735975
-0.0192715
0.0427844
0.11921
0.21878
0.35481
0.547981
0.82639
1.23658
1.91167
2.92419
-4.36667
-2.04464
-0.973544
-0.563183
-0.357848
-0.240149
-0.170121
-0.123785
-0.0874836
-0.0535127
-0.0166569
0.0276581
0.0846049
0.161727
0.272409
0.442096
0.718216
1.22571
2.41103
4.84853
)
;

boundaryField
{
    movingWall
    {
        type            zeroGradient;
    }
    fixedWalls
    {
        type            zeroGradient;
    }
    frontAndBack
    {
        type            empty;
    }
}


// ************************************************************************* //
