/*--------------------------------*- C++ -*----------------------------------*\
  =========                 |
  \\      /  F ield         | OpenFOAM: The Open Source CFD Toolbox
   \\    /   O peration     | Website:  https://openfoam.org
    \\  /    A nd           | Version:  8
     \\/     M anipulation  |
\*---------------------------------------------------------------------------*/
FoamFile
{
    version     2.0;
    format      ascii;
    class       volScalarField;
    location    "4.7";
    object      T;
}
// * * * * * * * * * * * * * * * * * * * * * * * * * * * * * * * * * * * * * //

dimensions      [0 0 0 1 0 0 0];

internalField   nonuniform List<scalar> 
400
(
293.721
295.118
296.469
297.831
299.232
300.634
301.958
303.127
304.08
304.77
305.16
305.214
304.903
304.207
303.121
301.67
299.915
297.961
295.942
293.965
295.213
299.504
303.679
307.922
312.294
316.622
320.617
324.033
326.707
328.538
329.454
329.39
328.291
326.116
322.858
318.57
313.411
307.665
301.707
295.855
296.804
304.144
311.3
318.579
326.013
333.215
339.662
344.991
349.022
351.674
352.897
352.629
350.796
347.31
342.105
335.199
326.786
317.311
307.427
297.714
298.482
309.004
319.272
329.665
340.078
349.828
358.202
364.843
369.686
372.771
374.137
373.76
371.533
367.271
360.747
351.799
340.498
327.364
313.398
299.629
300.224
314.009
327.449
340.907
353.995
365.686
375.182
382.317
387.288
390.362
391.726
391.423
389.313
385.073
378.217
368.218
354.765
338.206
319.904
301.684
302.011
319.092
335.683
352.001
367.227
379.989
389.592
396.272
400.635
403.237
404.44
404.358
402.836
399.42
393.345
383.597
369.187
349.853
327.075
303.915
303.83
324.2
343.831
362.648
379.254
392.024
400.637
405.97
409.116
410.902
411.82
412.034
411.388
409.365
404.998
396.811
382.958
362.025
334.952
306.323
305.676
329.31
351.801
372.58
389.624
401.275
407.939
411.322
412.956
413.813
414.414
414.935
415.241
414.832
412.692
407.052
395.256
374.316
343.59
308.902
307.535
334.331
359.383
381.509
398.006
407.529
411.631
412.887
413.057
413.073
413.4
414.187
415.34
416.452
416.611
414.009
405.44
386.249
353.077
311.667
309.439
339.392
366.714
389.351
404.241
410.895
412.275
411.611
410.583
409.951
410.068
411.042
412.828
415.159
417.345
417.783
413.115
397.288
363.444
314.689
311.337
344.183
373.243
395.728
408.287
411.771
410.671
408.52
406.64
405.573
405.54
406.613
408.787
411.944
415.673
418.77
418.151
406.908
374.581
318.197
313.356
349.183
379.706
401.056
410.477
410.738
407.669
404.536
402.132
400.817
400.688
401.79
404.135
407.721
412.422
417.539
420.664
414.69
386.2
322.708
315.38
353.778
384.883
404.567
410.74
408.348
404.047
400.392
397.73
396.31
396.128
397.222
399.592
403.284
408.4
414.752
420.957
420.373
397.843
329.087
317.78
358.777
390.407
407.511
410.159
405.572
400.546
396.653
393.919
392.481
392.278
393.352
395.685
399.272
404.359
411.123
419.48
423.871
408.949
338.382
319.946
363.571
394.172
408.373
408.099
402.416
397.439
393.724
391.142
389.762
389.55
390.566
392.836
396.199
400.971
407.397
416.81
425.272
418.945
351.376
324.082
368.682
398.726
409.544
406.867
400.807
396.109
392.622
390.222
388.915
388.687
389.523
391.618
394.579
398.868
404.359
413.68
424.825
427.347
368.008
324.889
374.242
400.862
408.376
404.844
399.672
395.919
393.327
391.653
390.739
390.764
391.351
393.077
395.212
398.778
402.889
411.102
423.024
433.842
387.023
333.755
378.688
403.596
409.449
407.353
404.121
401.555
399.544
398.438
397.449
397.449
397.293
398.375
399.135
401.704
404.106
410.719
420.963
438.488
406.301
327.601
382.025
399.96
405.396
406.7
406.013
405.83
404.807
404.995
404.214
404.986
404.509
406.031
405.994
408.769
409.816
415.911
421.704
442.544
424.137
336.507
363.723
378.471
387.106
394.487
399.235
404.681
407.89
412.677
414.91
419.542
420.949
425.809
426.407
432.018
431.795
439.368
438.352
452.461
441.342
)
;

boundaryField
{
    movingWall
    {
        type            fixedValue;
        value           uniform 493;
    }
    fixedWalls
    {
        type            fixedValue;
        value           uniform 293;
    }
    frontAndBack
    {
        type            empty;
    }
}


// ************************************************************************* //
