/*--------------------------------*- C++ -*----------------------------------*\
  =========                 |
  \\      /  F ield         | OpenFOAM: The Open Source CFD Toolbox
   \\    /   O peration     | Website:  https://openfoam.org
    \\  /    A nd           | Version:  8
     \\/     M anipulation  |
\*---------------------------------------------------------------------------*/
FoamFile
{
    version     2.0;
    format      ascii;
    class       volScalarField;
    location    "4.3";
    object      p;
}
// * * * * * * * * * * * * * * * * * * * * * * * * * * * * * * * * * * * * * //

dimensions      [0 2 -2 0 0 0 0];

internalField   nonuniform List<scalar> 
400
(
9.31485e-07
-0.00582841
-0.0129668
-0.0184193
-0.020437
-0.0182434
-0.0117789
-0.00148868
0.0118324
0.0271443
0.0432396
0.0588184
0.0725742
0.0833042
0.0900486
0.0922627
0.0900215
0.0842394
0.0768761
0.0710625
0.00577768
-0.000221873
-0.00580801
-0.00954691
-0.0106036
-0.00843748
-0.00297477
0.00546928
0.016298
0.0287069
0.041745
0.0543813
0.0655819
0.0744055
0.0801159
0.0823114
0.0810729
0.0770504
0.0712695
0.0653132
0.0133315
0.00502985
-0.000999375
-0.00442743
-0.00527748
-0.00326867
0.00159751
0.00902272
0.0184972
0.0293445
0.0407607
0.0518649
0.0617639
0.0696318
0.0748025
0.0768736
0.0758372
0.0720814
0.0658009
0.0575307
0.0201357
0.00869204
0.00122177
-0.00267281
-0.00372662
-0.00189001
0.00272643
0.00977967
0.0187755
0.0290902
0.0399872
0.0506493
0.0602282
0.0679113
0.0729985
0.0749969
0.0737612
0.0694515
0.0615983
0.0500977
0.0244982
0.00976914
0.000585669
-0.00399115
-0.00530664
-0.00351195
0.00116994
0.00832964
0.017457
0.0279442
0.0390802
0.0500652
0.0600442
0.0681603
0.0736216
0.075793
0.0743642
0.069285
0.0595208
0.0445322
0.025174
0.00714599
-0.00380617
-0.00906143
-0.0105165
-0.00850445
-0.00336148
0.00442458
0.0143084
0.0256741
0.0378089
0.0498985
0.0610434
0.0702984
0.0767299
0.0795121
0.0781341
0.0723287
0.0605344
0.0418851
0.0210895
-0.000266478
-0.0129387
-0.0187136
-0.0200341
-0.0174183
-0.0113229
-0.00232438
0.00898558
0.0219713
0.0359047
0.0499395
0.0631074
0.0743405
0.0825171
0.0865647
0.0857159
0.0794422
0.0656155
0.0430668
0.0111388
-0.0136224
-0.0278794
-0.0338586
-0.0346079
-0.0308618
-0.0232172
-0.0123497
0.00110016
0.0164791
0.0330476
0.0499287
0.0660786
0.0802852
0.091196
0.0974253
0.0978655
0.0916312
0.0758914
0.0491116
-0.00597133
-0.0342707
-0.0498744
-0.055553
-0.0550945
-0.049519
-0.0395979
-0.0261177
-0.00976163
0.00881832
0.0288962
0.0495886
0.0697927
0.0881498
0.103043
0.112697
0.115546
0.110187
0.0928295
0.0614066
-0.0318615
-0.0638804
-0.0804213
-0.0850116
-0.0824246
-0.0740828
-0.0609853
-0.044041
-0.0239559
-0.00134141
0.023141
0.0486563
0.0740908
0.0979675
0.118391
0.133121
0.139984
0.136813
0.118436
0.0819291
-0.0686718
-0.104608
-0.121349
-0.123594
-0.11752
-0.105131
-0.0877227
-0.0663299
-0.0416414
-0.01416
0.0156011
0.0469487
0.0788512
0.109789
0.137619
0.159581
0.172722
0.173774
0.155516
0.113566
-0.119407
-0.159361
-0.174919
-0.172761
-0.161152
-0.142933
-0.119763
-0.0927814
-0.0625818
-0.029452
0.0063688
0.0444691
0.0840507
0.123699
0.161132
0.193082
0.215664
0.224073
0.208046
0.160628
-0.188633
-0.232246
-0.243943
-0.233952
-0.213698
-0.187158
-0.156377
-0.122505
-0.0859021
-0.0464764
-0.0040186
0.0415347
0.089838
0.139825
0.189315
0.234685
0.27107
0.29166
0.281739
0.229772
-0.283979
-0.329309
-0.331835
-0.308284
-0.274712
-0.236443
-0.195768
-0.153614
-0.109844
-0.063749
-0.0144417
0.0388596
0.0965505
0.158273
0.22237
0.285284
0.341393
0.381571
0.38491
0.33183
-0.419322
-0.459675
-0.442354
-0.395795
-0.342132
-0.287743
-0.234619
-0.182933
-0.131613
-0.0789883
-0.0232174
0.0374719
0.10455
0.178834
0.259858
0.344967
0.428613
0.499697
0.529672
0.485388
-0.620535
-0.636747
-0.57868
-0.494196
-0.411243
-0.335661
-0.267783
-0.20598
-0.147539
-0.0893857
-0.0284289
0.0383455
0.113804
0.200469
0.299972
0.412022
0.533027
0.651772
0.732769
0.722393
-0.935926
-0.878517
-0.741744
-0.597951
-0.474395
-0.372661
-0.288871
-0.217765
-0.153956
-0.0924662
-0.0287197
0.0416933
0.123261
0.220716
0.338923
0.482152
0.651994
0.841339
1.01527
1.0975
-1.47643
-1.20663
-0.920505
-0.69139
-0.517307
-0.387546
-0.290063
-0.213339
-0.148126
-0.0872176
-0.0245798
0.0454553
0.128935
0.233069
0.367101
0.542676
0.771291
1.05932
1.40328
1.73014
-2.53965
-1.63055
-1.04444
-0.710961
-0.495752
-0.352095
-0.254533
-0.183585
-0.126171
-0.0735972
-0.0192712
0.0427847
0.11921
0.21878
0.35481
0.547981
0.826391
1.23658
1.91167
2.92419
-4.36667
-2.04464
-0.973544
-0.563182
-0.357848
-0.240148
-0.170121
-0.123785
-0.0874833
-0.0535124
-0.0166567
0.0276584
0.0846051
0.161727
0.272409
0.442097
0.718217
1.22571
2.41103
4.84853
)
;

boundaryField
{
    movingWall
    {
        type            zeroGradient;
    }
    fixedWalls
    {
        type            zeroGradient;
    }
    frontAndBack
    {
        type            empty;
    }
}


// ************************************************************************* //
