/*--------------------------------*- C++ -*----------------------------------*\
  =========                 |
  \\      /  F ield         | OpenFOAM: The Open Source CFD Toolbox
   \\    /   O peration     | Website:  https://openfoam.org
    \\  /    A nd           | Version:  8
     \\/     M anipulation  |
\*---------------------------------------------------------------------------*/
FoamFile
{
    version     2.0;
    format      ascii;
    class       volScalarField;
    location    "4.3";
    object      T;
}
// * * * * * * * * * * * * * * * * * * * * * * * * * * * * * * * * * * * * * //

dimensions      [0 0 0 1 0 0 0];

internalField   nonuniform List<scalar> 
400
(
293.703
295.068
296.393
297.734
299.117
300.503
301.814
302.972
303.918
304.605
304.995
305.054
304.752
304.068
302.999
301.566
299.832
297.902
295.906
293.954
295.16
299.354
303.45
307.631
311.95
316.232
320.188
323.574
326.23
328.055
328.976
328.929
327.858
325.722
322.51
318.278
313.179
307.498
301.607
295.822
296.714
303.895
310.922
318.1
325.449
332.577
338.964
344.248
348.253
350.9
352.136
351.9
350.116
346.694
341.566
334.748
326.43
317.054
307.272
297.663
298.357
308.657
318.75
329.006
339.305
348.956
357.25
363.833
368.644
371.724
373.11
372.78
370.624
366.453
360.038
351.21
340.037
327.032
313.199
299.563
300.065
313.569
326.789
340.076
353.02
364.586
373.981
381.04
385.967
389.029
390.417
390.174
388.158
384.04
377.33
367.49
354.2
337.804
319.664
301.605
301.819
318.562
334.889
351.003
366.053
378.659
388.129
394.705
398.999
401.576
402.802
402.794
401.392
398.136
392.251
382.709
368.509
349.378
326.794
303.823
303.604
323.581
342.906
361.482
377.874
390.446
398.881
404.068
407.114
408.856
409.795
410.096
409.601
407.782
403.659
395.737
382.151
361.469
334.628
306.218
305.417
328.603
350.745
371.241
388.023
399.42
405.849
409.034
410.53
411.321
411.94
412.563
413.053
412.899
411.066
405.762
394.301
373.671
343.22
308.784
307.241
333.533
358.189
379.986
396.163
405.362
409.16
410.16
410.148
410.074
410.414
411.319
412.692
414.113
414.65
412.465
404.313
385.504
352.658
311.536
309.112
338.51
365.386
387.634
402.13
408.379
409.376
408.394
407.138
406.39
406.513
407.62
409.663
412.361
415
415.945
411.787
396.428
362.971
314.544
310.968
343.188
371.755
393.792
405.877
408.867
407.305
404.771
402.616
401.405
401.371
402.59
405.055
408.635
412.895
416.594
416.591
405.915
374.047
318.037
312.956
348.122
378.077
398.895
407.744
407.416
403.805
400.227
397.505
396.019
395.88
397.138
399.803
403.863
409.168
414.983
418.837
413.542
385.595
322.529
314.916
352.547
383.054
402.137
407.651
404.585
399.675
395.524
392.507
390.894
390.693
391.946
394.656
398.86
404.644
411.781
418.827
419.044
397.157
328.885
317.3
357.521
388.428
404.829
406.717
401.379
395.692
391.269
388.16
386.516
386.285
387.515
390.192
394.31
400.1
407.718
417.017
422.336
408.167
338.149
319.34
362.042
391.936
405.377
404.286
397.819
392.174
387.934
384.984
383.401
383.155
384.315
386.911
390.79
396.264
403.572
413.997
423.504
418.049
351.096
323.52
367.189
396.343
406.314
402.78
395.947
390.618
386.65
383.92
382.431
382.169
383.125
385.503
388.923
393.855
400.19
410.533
422.808
426.318
367.664
324.045
372.327
398.161
404.867
400.556
394.729
390.47
387.507
385.584
384.538
384.541
385.222
387.162
389.656
393.736
398.565
407.71
420.768
432.668
386.596
333.089
376.92
400.892
405.999
403.296
399.599
396.693
394.444
393.181
392.112
392.095
391.999
393.21
394.198
397.099
400.004
407.319
418.561
437.18
405.775
326.499
379.71
397.11
402.2
403.251
402.391
402.082
400.984
401.12
400.329
401.104
400.676
402.259
402.347
405.277
406.595
413.046
419.474
441.205
423.522
336.033
362.723
377.24
385.758
393.063
397.776
403.191
406.395
411.17
413.415
418.046
419.48
424.347
424.994
430.628
430.495
438.131
437.3
451.552
440.733
)
;

boundaryField
{
    movingWall
    {
        type            fixedValue;
        value           uniform 493;
    }
    fixedWalls
    {
        type            fixedValue;
        value           uniform 293;
    }
    frontAndBack
    {
        type            empty;
    }
}


// ************************************************************************* //
