/*--------------------------------*- C++ -*----------------------------------*\
  =========                 |
  \\      /  F ield         | OpenFOAM: The Open Source CFD Toolbox
   \\    /   O peration     | Website:  https://openfoam.org
    \\  /    A nd           | Version:  8
     \\/     M anipulation  |
\*---------------------------------------------------------------------------*/
FoamFile
{
    version     2.0;
    format      ascii;
    class       volScalarField;
    location    "9.4";
    object      T;
}
// * * * * * * * * * * * * * * * * * * * * * * * * * * * * * * * * * * * * * //

dimensions      [0 0 0 1 0 0 0];

internalField   nonuniform List<scalar> 
400
(
293.798
295.34
296.814
298.28
299.772
301.256
302.652
303.877
304.869
305.578
305.966
305.997
305.643
304.884
303.718
302.172
300.311
298.245
296.111
294.021
295.449
300.176
304.72
309.276
313.924
318.498
322.702
326.274
329.047
330.917
331.808
331.661
330.422
328.056
324.56
320
314.54
308.476
302.192
296.015
297.201
305.269
313.037
320.829
328.716
336.316
343.091
348.658
352.83
355.523
356.686
356.263
354.184
350.373
344.777
337.431
328.543
318.571
308.181
297.963
299.041
310.58
321.695
332.796
343.829
354.119
362.929
369.885
374.911
378.043
379.315
378.707
376.122
371.392
364.314
354.752
342.806
329.012
314.385
299.955
300.946
316.031
330.549
344.906
358.78
371.155
381.213
388.766
393.994
397.147
398.4
397.794
395.204
390.329
382.726
371.912
357.618
340.225
321.105
302.079
302.896
321.557
339.453
356.864
373.056
386.679
397.015
404.27
409.013
411.761
412.853
412.397
410.253
406.003
398.943
388.125
372.635
352.26
328.493
304.377
304.878
327.106
348.273
368.39
386.175
400.034
409.619
415.747
419.442
421.471
422.287
422.048
420.616
417.522
411.88
402.312
387.079
364.852
336.594
306.852
306.89
332.657
356.921
379.235
397.722
410.76
418.703
423.156
425.545
426.76
427.278
427.259
426.593
424.841
421.086
413.692
400.151
377.607
345.47
309.5
308.923
338.148
365.223
389.143
407.4
418.679
424.43
427.074
428.23
428.738
429.004
429.162
429.142
428.61
426.771
421.982
411.234
390.063
355.212
312.334
310.999
343.642
373.267
398.03
415.075
423.921
427.364
428.433
428.644
428.651
428.737
428.994
429.402
429.77
429.541
427.308
419.957
401.701
365.86
315.43
313.11
349.016
380.644
405.577
420.724
426.877
428.284
428.224
427.844
427.569
427.547
427.824
428.42
429.293
430.176
430.079
426.215
412.016
377.314
319.017
315.292
354.377
387.872
412.127
424.654
428.105
427.984
427.289
426.638
426.267
426.197
426.442
427.032
428.038
429.472
430.861
430.136
420.608
389.296
323.62
317.636
359.837
394.104
417.07
426.834
428.102
427.139
426.221
425.526
425.181
425.109
425.313
425.801
426.676
428.165
430.287
432.027
427.232
401.364
330.118
320.128
365.004
400.459
421.394
428.17
427.681
426.297
425.344
424.709
424.427
424.38
424.572
424.98
425.626
426.848
428.986
432.316
431.815
412.97
339.578
322.935
371.192
405.573
423.932
428.118
426.729
425.463
424.686
424.176
423.943
423.915
424.116
424.543
425.022
425.911
427.526
431.505
434.438
423.556
352.804
326.864
376.18
410.966
426.405
428.398
426.592
425.405
424.611
424.074
423.795
423.753
423.9
424.398
424.782
425.497
426.351
430.154
435.307
432.645
369.764
329.094
383.891
414.755
426.71
427.438
425.877
424.949
424.44
424.164
423.998
424.152
424.208
424.731
424.863
425.567
425.726
428.891
434.765
439.903
389.213
337.087
387.659
417.591
427.521
428.725
428.033
427.343
426.647
426.415
425.868
425.96
425.472
425.843
425.336
426.076
425.727
428.546
433.476
445.249
408.998
333.143
393.747
414.58
421.93
424.628
424.901
425.42
424.818
425.301
424.59
425.354
424.63
425.823
425.12
427.063
426.667
430.857
433.306
449.464
427.293
338.882
368.754
384.701
393.953
401.743
406.693
412.309
415.555
420.417
422.594
427.247
428.516
433.344
433.693
439.186
438.503
445.746
443.768
457.125
444.467
)
;

boundaryField
{
    movingWall
    {
        type            fixedValue;
        value           uniform 493;
    }
    fixedWalls
    {
        type            fixedValue;
        value           uniform 293;
    }
    frontAndBack
    {
        type            empty;
    }
}


// ************************************************************************* //
