/*--------------------------------*- C++ -*----------------------------------*\
  =========                 |
  \\      /  F ield         | OpenFOAM: The Open Source CFD Toolbox
   \\    /   O peration     | Website:  https://openfoam.org
    \\  /    A nd           | Version:  8
     \\/     M anipulation  |
\*---------------------------------------------------------------------------*/
FoamFile
{
    version     2.0;
    format      ascii;
    class       volScalarField;
    location    "3";
    object      p;
}
// * * * * * * * * * * * * * * * * * * * * * * * * * * * * * * * * * * * * * //

dimensions      [0 2 -2 0 0 0 0];

internalField   nonuniform List<scalar> 
400
(
1.55359e-06
-0.00582733
-0.0129656
-0.0184182
-0.0204359
-0.0182423
-0.0117778
-0.00148752
0.0118337
0.0271456
0.0432409
0.0588197
0.0725753
0.0833052
0.0900496
0.0922638
0.0900227
0.0842407
0.0768774
0.0710638
0.00577872
-0.000220758
-0.00580684
-0.0095457
-0.0106023
-0.00843631
-0.00297366
0.00547037
0.0162992
0.0287081
0.0417463
0.0543826
0.0655831
0.0744067
0.080117
0.0823125
0.081074
0.0770515
0.0712708
0.0653145
0.0133326
0.00503096
-0.000998239
-0.00442623
-0.00527623
-0.00326742
0.00159869
0.00902382
0.0184983
0.0293456
0.0407619
0.0518662
0.0617652
0.0696331
0.0748037
0.0768747
0.0758382
0.0720825
0.065802
0.057532
0.0201369
0.00869316
0.00122287
-0.00267167
-0.00372539
-0.00188873
0.0027277
0.00978085
0.0187766
0.0290913
0.0399883
0.0506505
0.0602295
0.0679126
0.0729998
0.0749981
0.0737623
0.0694526
0.0615994
0.0500989
0.0244994
0.00977029
0.000586758
-0.00399007
-0.00530549
-0.00351069
0.00117125
0.00833092
0.0174582
0.0279453
0.0390812
0.0500663
0.0600453
0.0681616
0.0736229
0.0757943
0.0743654
0.0692862
0.0595219
0.0445333
0.0251753
0.00714721
-0.00380504
-0.00906036
-0.0105154
-0.0085033
-0.00336021
0.00442591
0.0143097
0.0256753
0.03781
0.0498995
0.0610444
0.0702996
0.0767311
0.0795134
0.0781353
0.0723299
0.0605355
0.0418862
0.0210908
-0.000265214
-0.0129375
-0.0187125
-0.0200331
-0.0174172
-0.0113217
-0.00232311
0.00898692
0.0219726
0.0359059
0.0499406
0.0631084
0.0743416
0.0825183
0.0865659
0.0857171
0.0794435
0.0656167
0.0430679
0.0111399
-0.0136211
-0.0278781
-0.0338574
-0.0346067
-0.0308608
-0.0232162
-0.0123485
0.00110144
0.0164804
0.0330489
0.0499299
0.0660797
0.0802862
0.0911971
0.0974264
0.0978667
0.0916325
0.0758927
0.0491128
-0.00597024
-0.0342695
-0.0498731
-0.0555517
-0.0550933
-0.0495179
-0.0395968
-0.0261167
-0.00976048
0.00881959
0.0288975
0.0495899
0.0697939
0.0881509
0.103044
0.112698
0.115547
0.110188
0.0928307
0.0614078
-0.0318604
-0.0638793
-0.08042
-0.0850103
-0.0824233
-0.0740816
-0.0609842
-0.04404
-0.0239549
-0.00134027
0.0231422
0.0486576
0.0740921
0.0979688
0.118392
0.133122
0.139985
0.136815
0.118437
0.0819303
-0.0686707
-0.104607
-0.121348
-0.123593
-0.117519
-0.10513
-0.0877215
-0.0663288
-0.0416404
-0.014159
0.0156022
0.0469499
0.0788524
0.10979
0.13762
0.159582
0.172723
0.173775
0.155517
0.113567
-0.119406
-0.15936
-0.174918
-0.17276
-0.161151
-0.142932
-0.119762
-0.0927802
-0.0625807
-0.0294509
0.00636986
0.0444703
0.0840519
0.1237
0.161133
0.193083
0.215665
0.224074
0.208047
0.160629
-0.188631
-0.232245
-0.243942
-0.233951
-0.213697
-0.187157
-0.156375
-0.122504
-0.0859009
-0.0464752
-0.00401752
0.0415358
0.0898391
0.139826
0.189316
0.234686
0.271072
0.291661
0.28174
0.229773
-0.283977
-0.329307
-0.331834
-0.308283
-0.274711
-0.236442
-0.195767
-0.153613
-0.109843
-0.0637478
-0.0144406
0.0388607
0.0965516
0.158274
0.222372
0.285285
0.341395
0.381572
0.384911
0.331831
-0.419321
-0.459673
-0.442353
-0.395794
-0.342131
-0.287742
-0.234618
-0.182932
-0.131611
-0.078987
-0.0232161
0.0374731
0.104551
0.178836
0.259859
0.344968
0.428614
0.499698
0.529673
0.485389
-0.620534
-0.636745
-0.578679
-0.494195
-0.411242
-0.33566
-0.267782
-0.205979
-0.147538
-0.0893845
-0.0284276
0.0383467
0.113805
0.20047
0.299973
0.412023
0.533028
0.651773
0.73277
0.722394
-0.935925
-0.878516
-0.741743
-0.59795
-0.474394
-0.37266
-0.28887
-0.217764
-0.153954
-0.0924651
-0.0287185
0.0416945
0.123262
0.220717
0.338925
0.482153
0.651995
0.84134
1.01527
1.0975
-1.47642
-1.20663
-0.920504
-0.691389
-0.517306
-0.387545
-0.290062
-0.213338
-0.148125
-0.0872165
-0.0245786
0.0454564
0.128936
0.23307
0.367102
0.542677
0.771292
1.05932
1.40329
1.73014
-2.53965
-1.63055
-1.04444
-0.710959
-0.495751
-0.352094
-0.254531
-0.183584
-0.12617
-0.0735961
-0.0192701
0.0427858
0.119211
0.218782
0.354811
0.547983
0.826392
1.23658
1.91168
2.92419
-4.36667
-2.04463
-0.973543
-0.563181
-0.357847
-0.240147
-0.17012
-0.123784
-0.0874821
-0.0535112
-0.0166555
0.0276595
0.0846063
0.161728
0.27241
0.442098
0.718218
1.22571
2.41103
4.84853
)
;

boundaryField
{
    movingWall
    {
        type            zeroGradient;
    }
    fixedWalls
    {
        type            zeroGradient;
    }
    frontAndBack
    {
        type            empty;
    }
}


// ************************************************************************* //
