/*--------------------------------*- C++ -*----------------------------------*\
  =========                 |
  \\      /  F ield         | OpenFOAM: The Open Source CFD Toolbox
   \\    /   O peration     | Website:  https://openfoam.org
    \\  /    A nd           | Version:  8
     \\/     M anipulation  |
\*---------------------------------------------------------------------------*/
FoamFile
{
    version     2.0;
    format      ascii;
    class       volScalarField;
    location    "3";
    object      T;
}
// * * * * * * * * * * * * * * * * * * * * * * * * * * * * * * * * * * * * * //

dimensions      [0 0 0 1 0 0 0];

internalField   nonuniform List<scalar> 
400
(
293.591
294.755
295.93
297.168
298.473
299.793
301.045
302.156
303.07
303.742
304.138
304.221
303.964
303.344
302.355
301.02
299.396
297.586
295.716
293.89
294.823
298.42
302.077
305.958
310.051
314.136
317.924
321.181
323.759
325.562
326.517
326.559
325.631
323.687
320.712
316.753
311.962
306.613
301.072
295.644
296.159
302.368
308.696
315.404
322.398
329.216
335.346
340.447
344.355
346.993
348.307
348.237
346.697
343.591
338.842
332.452
324.601
315.724
306.465
297.393
297.595
306.579
315.741
325.383
335.214
344.46
352.427
358.786
363.484
366.567
368.073
367.978
366.167
362.438
356.541
348.288
337.726
325.358
312.182
299.224
299.111
310.981
323.065
335.61
347.98
359.046
368.034
374.802
379.566
382.609
384.133
384.183
382.613
379.072
373.042
363.947
351.433
335.82
318.466
301.207
300.683
315.501
330.505
345.752
360.111
372.094
381.031
387.191
391.219
393.716
395.07
395.408
394.561
392.043
387.035
378.453
365.235
347.065
325.415
303.369
302.295
320.073
337.896
355.475
371.029
382.801
390.51
395.096
397.73
399.306
400.356
401.059
401.245
400.352
397.342
390.64
378.291
358.791
333.053
305.706
303.941
324.672
345.138
364.478
380.223
390.58
396.027
398.381
399.296
399.822
400.533
401.619
402.928
403.911
403.46
399.682
389.765
370.584
341.436
308.212
305.594
329.162
351.96
372.43
387.322
395.176
397.689
397.607
396.832
396.391
396.799
398.225
400.559
403.34
405.555
405.242
398.994
381.955
350.645
310.902
307.306
333.761
358.578
379.248
392.137
396.685
396.072
393.746
391.544
390.321
390.484
392.164
395.305
399.587
404.211
407.404
405.561
392.35
360.706
313.845
308.961
337.906
364.233
384.467
394.604
395.515
392.012
387.883
384.605
382.812
382.784
384.617
388.301
393.672
400.218
406.557
409.316
401.227
371.498
317.266
310.811
342.572
369.976
388.623
395.097
392.29
386.428
381.029
377.026
374.864
374.693
376.587
380.561
386.584
394.446
403.279
410.361
408.147
382.719
321.674
312.467
346.192
374.058
390.713
393.486
387.611
380.206
374.063
369.648
367.285
367.014
368.903
372.967
379.246
387.79
398.276
409.005
412.833
393.9
327.92
314.797
351.133
378.848
392.366
391.087
382.634
374.278
367.766
363.207
360.779
360.446
362.281
366.298
372.512
381.159
392.352
405.726
415.192
404.463
337.032
316.216
354.34
381.196
391.556
387.083
377.421
369.124
362.853
358.508
356.164
355.798
357.503
361.347
367.227
375.492
386.429
401.177
415.317
413.823
349.763
320.656
359.789
385.078
391.574
384.49
374.517
366.703
360.884
356.906
354.736
354.351
355.766
359.214
364.4
371.851
381.613
396.268
413.507
421.487
366.028
319.799
362.894
385.431
388.874
381.375
372.92
366.677
362.285
359.425
357.889
357.817
358.869
361.633
365.519
371.616
379.345
392.383
410.409
427.172
384.562
329.771
368.352
388.328
390.374
385.151
379.543
375.258
372.062
370.176
368.801
368.721
368.87
370.586
372.492
376.722
381.691
391.945
407.551
431.074
403.279
321.044
368.435
383.609
387.329
387.371
385.827
385.021
383.644
383.589
382.784
383.59
383.388
385.242
385.878
389.468
391.96
399.961
409.212
434.954
420.61
333.673
357.777
371.226
379.238
386.223
390.799
396.099
399.305
404.044
406.368
411.003
412.584
417.494
418.38
424.124
424.409
432.329
432.351
447.248
437.836
)
;

boundaryField
{
    movingWall
    {
        type            fixedValue;
        value           uniform 493;
    }
    fixedWalls
    {
        type            fixedValue;
        value           uniform 293;
    }
    frontAndBack
    {
        type            empty;
    }
}


// ************************************************************************* //
