/*--------------------------------*- C++ -*----------------------------------*\
  =========                 |
  \\      /  F ield         | OpenFOAM: The Open Source CFD Toolbox
   \\    /   O peration     | Website:  https://openfoam.org
    \\  /    A nd           | Version:  8
     \\/     M anipulation  |
\*---------------------------------------------------------------------------*/
FoamFile
{
    version     2.0;
    format      ascii;
    class       volScalarField;
    location    "5.6";
    object      p;
}
// * * * * * * * * * * * * * * * * * * * * * * * * * * * * * * * * * * * * * //

dimensions      [0 2 -2 0 0 0 0];

internalField   nonuniform List<scalar> 
400
(
5.60952e-07
-0.00582903
-0.0129675
-0.01842
-0.0204378
-0.0182442
-0.0117796
-0.00148937
0.0118318
0.0271436
0.043239
0.0588177
0.0725735
0.0833034
0.0900478
0.092262
0.0900208
0.0842387
0.0768754
0.0710618
0.00577705
-0.000222542
-0.00580868
-0.00954758
-0.0106042
-0.0084382
-0.00297551
0.00546854
0.0162973
0.0287062
0.0417444
0.0543806
0.0655812
0.0744048
0.0801152
0.0823107
0.0810722
0.0770497
0.0712689
0.0653125
0.0133308
0.00502915
-0.00100006
-0.00442809
-0.00527814
-0.00326935
0.00159679
0.00902197
0.0184965
0.0293438
0.04076
0.0518643
0.0617632
0.0696311
0.0748018
0.0768729
0.0758364
0.0720806
0.0658002
0.0575301
0.020135
0.00869132
0.00122106
-0.0026735
-0.00372727
-0.00189066
0.00272575
0.00977894
0.0187747
0.0290895
0.0399865
0.0506486
0.0602276
0.0679106
0.0729979
0.0749962
0.0737605
0.0694507
0.0615975
0.050097
0.0244975
0.00976842
0.000584928
-0.00399188
-0.00530732
-0.00351259
0.0011693
0.00832897
0.0174563
0.0279434
0.0390794
0.0500645
0.0600435
0.0681597
0.073621
0.0757923
0.0743635
0.0692843
0.05952
0.0445315
0.0251733
0.0071453
-0.00380691
-0.00906219
-0.0105172
-0.00850513
-0.00336212
0.00442395
0.0143077
0.0256733
0.0378082
0.0498977
0.0610426
0.0702977
0.0767292
0.0795114
0.0781334
0.072328
0.0605337
0.0418843
0.0210889
-0.000267147
-0.0129394
-0.0187143
-0.0200349
-0.017419
-0.0113236
-0.00232502
0.00898495
0.0219706
0.035904
0.0499387
0.0631066
0.0743398
0.0825164
0.086564
0.0857152
0.0794415
0.0656148
0.043066
0.0111381
-0.013623
-0.02788
-0.0338593
-0.0346086
-0.0308626
-0.023218
-0.0123504
0.00109952
0.0164784
0.033047
0.049928
0.0660778
0.0802844
0.0911953
0.0974246
0.0978648
0.0916306
0.0758907
0.0491109
-0.00597206
-0.0342714
-0.049875
-0.0555537
-0.0550953
-0.0495197
-0.0395986
-0.0261185
-0.00976232
0.00881768
0.0288956
0.049588
0.069792
0.088149
0.103042
0.112696
0.115545
0.110186
0.0928288
0.0614059
-0.0318622
-0.0638812
-0.0804219
-0.0850122
-0.0824252
-0.0740835
-0.0609861
-0.0440418
-0.0239567
-0.00134211
0.0231403
0.0486556
0.0740902
0.0979668
0.118391
0.13312
0.139983
0.136813
0.118435
0.0819284
-0.0686725
-0.104608
-0.12135
-0.123595
-0.117521
-0.105132
-0.0877234
-0.0663307
-0.0416422
-0.0141608
0.0156004
0.046948
0.0788505
0.109788
0.137618
0.15958
0.172722
0.173773
0.155515
0.113566
-0.119408
-0.159362
-0.17492
-0.172762
-0.161153
-0.142934
-0.119764
-0.0927821
-0.0625825
-0.0294527
0.00636805
0.0444684
0.0840501
0.123698
0.161131
0.193081
0.215663
0.224072
0.208045
0.160627
-0.188633
-0.232247
-0.243944
-0.233953
-0.213699
-0.187159
-0.156377
-0.122506
-0.0859028
-0.0464771
-0.00401936
0.041534
0.0898373
0.139824
0.189314
0.234684
0.27107
0.291659
0.281738
0.229771
-0.283979
-0.329309
-0.331836
-0.308284
-0.274713
-0.236444
-0.195769
-0.153614
-0.109845
-0.0637497
-0.0144425
0.0388589
0.0965497
0.158272
0.22237
0.285283
0.341393
0.38157
0.38491
0.33183
-0.419323
-0.459675
-0.442355
-0.395796
-0.342133
-0.287743
-0.23462
-0.182934
-0.131613
-0.078989
-0.0232181
0.0374712
0.104549
0.178834
0.259857
0.344966
0.428612
0.499696
0.529671
0.485387
-0.620535
-0.636747
-0.578681
-0.494197
-0.411244
-0.335662
-0.267784
-0.205981
-0.14754
-0.0893864
-0.0284295
0.0383448
0.113803
0.200468
0.299972
0.412022
0.533026
0.651771
0.732768
0.722392
-0.935927
-0.878518
-0.741745
-0.597952
-0.474396
-0.372662
-0.288871
-0.217766
-0.153956
-0.0924669
-0.0287204
0.0416926
0.12326
0.220715
0.338923
0.482152
0.651994
0.841338
1.01527
1.0975
-1.47643
-1.20663
-0.920506
-0.691391
-0.517308
-0.387547
-0.290064
-0.21334
-0.148127
-0.0872183
-0.0245805
0.0454546
0.128934
0.233068
0.3671
0.542675
0.77129
1.05931
1.40328
1.73014
-2.53965
-1.63055
-1.04444
-0.710961
-0.495753
-0.352096
-0.254533
-0.183586
-0.126172
-0.073598
-0.0192719
0.042784
0.119209
0.21878
0.354809
0.547981
0.82639
1.23658
1.91167
2.92419
-4.36667
-2.04464
-0.973545
-0.563183
-0.357849
-0.240149
-0.170122
-0.123786
-0.087484
-0.0535131
-0.0166574
0.0276576
0.0846044
0.161727
0.272408
0.442096
0.718216
1.22571
2.41103
4.84853
)
;

boundaryField
{
    movingWall
    {
        type            zeroGradient;
    }
    fixedWalls
    {
        type            zeroGradient;
    }
    frontAndBack
    {
        type            empty;
    }
}


// ************************************************************************* //
