/*--------------------------------*- C++ -*----------------------------------*\
  =========                 |
  \\      /  F ield         | OpenFOAM: The Open Source CFD Toolbox
   \\    /   O peration     | Website:  https://openfoam.org
    \\  /    A nd           | Version:  8
     \\/     M anipulation  |
\*---------------------------------------------------------------------------*/
FoamFile
{
    version     2.0;
    format      ascii;
    class       volScalarField;
    location    "2.6";
    object      T;
}
// * * * * * * * * * * * * * * * * * * * * * * * * * * * * * * * * * * * * * //

dimensions      [0 0 0 1 0 0 0];

internalField   nonuniform List<scalar> 
400
(
293.515
294.546
295.631
296.817
298.094
299.391
300.623
301.716
302.617
303.285
303.685
303.782
303.547
302.959
302.012
300.726
299.159
297.412
295.611
293.855
294.597
297.803
301.201
304.94
308.954
312.976
316.704
319.914
322.464
324.264
325.24
325.33
324.474
322.625
319.767
315.947
311.311
306.135
300.78
295.546
295.792
301.376
307.304
313.808
320.687
327.409
333.449
338.487
342.368
345.016
346.38
346.395
344.976
342.025
337.457
331.275
323.654
315.027
306.037
297.249
297.1
305.255
313.907
323.304
332.995
342.118
349.978
356.269
360.943
364.049
365.627
365.651
364.006
360.483
354.828
346.845
336.572
324.511
311.661
299.048
298.502
309.368
320.856
333.127
345.336
356.252
365.111
371.791
376.516
379.574
381.176
381.369
380.004
376.725
371.002
362.248
350.092
334.846
317.871
301.007
299.974
313.637
327.974
342.925
357.094
368.884
377.644
383.666
387.612
390.096
391.522
392.019
391.419
389.226
384.606
376.452
363.679
345.953
324.744
303.145
301.495
317.984
335.083
352.338
367.654
379.162
386.616
390.986
393.475
395.004
396.115
396.997
397.475
396.979
394.449
388.281
376.483
357.521
332.298
305.458
303.058
322.383
342.071
361.045
376.478
386.47
391.555
393.602
394.307
394.749
395.512
396.794
398.443
399.898
400.029
396.905
387.666
369.135
340.588
307.938
304.629
326.672
348.638
368.694
383.174
390.537
392.568
392.086
391.039
390.475
390.923
392.561
395.278
398.607
401.51
401.984
396.559
380.304
349.696
310.6
306.268
331.113
355.037
375.202
387.544
391.456
390.242
387.43
384.897
383.514
383.703
385.604
389.164
394.061
399.478
403.598
402.738
390.469
359.644
313.514
307.83
335.018
360.402
380.061
389.516
389.648
385.435
380.745
377.084
375.098
375.08
377.134
381.262
387.302
394.734
402.135
406.049
399.081
370.309
316.903
309.623
339.601
365.95
383.871
389.486
385.755
379.092
373.076
368.651
366.27
366.091
368.199
372.624
379.349
388.166
398.183
406.592
405.695
381.383
321.272
311.135
342.849
369.661
385.512
387.295
380.398
372.139
365.346
360.489
357.892
357.597
359.683
364.186
371.169
380.704
392.465
404.678
410.031
392.394
327.469
313.459
347.843
374.279
386.803
384.366
374.801
365.56
358.392
353.395
350.73
350.361
352.369
356.793
363.682
373.309
385.819
400.798
411.993
402.759
336.511
314.577
350.432
376.134
385.455
379.768
369.005
359.87
352.989
348.241
345.676
345.266
347.116
351.319
357.813
366.996
379.224
395.634
411.679
411.889
349.141
319.175
356.119
379.903
385.187
376.822
365.781
357.189
350.819
346.478
344.108
343.677
345.211
348.962
354.678
362.931
373.876
390.15
409.404
419.288
365.266
317.646
358.263
379.608
381.956
373.33
363.998
357.138
352.32
349.188
347.514
347.42
348.583
351.592
355.909
362.651
371.371
385.846
405.866
424.684
383.618
328.111
364.246
382.714
383.69
377.543
371.255
366.499
362.99
360.902
359.431
359.33
359.562
361.439
363.653
368.331
374.033
385.378
402.737
428.323
402.124
318.347
362.993
377.379
380.669
380.379
378.614
377.649
376.196
376.089
375.301
376.132
376.032
377.997
378.852
382.698
385.656
394.271
404.698
432.138
419.265
332.496
355.335
368.312
376.123
382.991
387.53
392.797
396.023
400.76
403.134
407.783
409.442
414.378
415.38
421.175
421.65
429.691
430.091
445.259
436.493
)
;

boundaryField
{
    movingWall
    {
        type            fixedValue;
        value           uniform 493;
    }
    fixedWalls
    {
        type            fixedValue;
        value           uniform 293;
    }
    frontAndBack
    {
        type            empty;
    }
}


// ************************************************************************* //
