/*--------------------------------*- C++ -*----------------------------------*\
  =========                 |
  \\      /  F ield         | OpenFOAM: The Open Source CFD Toolbox
   \\    /   O peration     | Website:  https://openfoam.org
    \\  /    A nd           | Version:  8
     \\/     M anipulation  |
\*---------------------------------------------------------------------------*/
FoamFile
{
    version     2.0;
    format      ascii;
    class       volScalarField;
    location    "0.01";
    object      rho;
}
// * * * * * * * * * * * * * * * * * * * * * * * * * * * * * * * * * * * * * //

dimensions      [0 -3 1 0 0 1 0];

internalField   nonuniform List<scalar> 
379000
(
0
0
0
0
0
0
0
0
0
0
0
0
0
0
0
0
0
0
0
0
0
0
0
0
0
0
0
0
0
0
0
0
0
0
0
0
0
0
0
0
0
0
0
0
0
0
0
0
0
0
0
0
0
0
0
0
0
0
0
0
0
0
0
0
0
0
0
0
0
0
0
0
0
0
0
0
0
0
0
0
0
0
0
0
0
0
0
0
0
0
0
0
0
0
0
0
0
0
0
0
0
0
0
0
0
0
0
0
0
0
0
0
0
0
0
0
0
0
0
0
0
0
0
0
0
0
0
0
0
0
0
0
0
0
0
0
0
0
0
0
0
0
0
0
0
0
0
0
0
0
0
0
0
0
0
0
0
0
0
0
0
0
0
0
0
0
0
0
0
0
0
0
0
0
0
0
0
0
0
0
0
0
0
0
0
0
0
0
0
0
0
0
0
0
0
0
0
0
0
0
0
0
0
0
0
0
0
0
0
0
0
0
0
0
0
0
0
0
0
0
0
0
0
0
0
0
0
0
0
0
0
0
0
0
0
0
0
0
0
0
0
0
0
0
0
0
0
0
0
0
0
0
0
0
0
0
0
0
0
0
0
0
0
0
0
0
0
0
0
0
0
0
0
0
0
0
0
0
0
0
0
0
0
0
0
0
0
0
0
0
0
0
0
0
0
0
0
0
0
0
0
0
0
0
0
0
0
0
0
0
0
0
0
0
0
0
0
0
0
0
0
0
0
0
0
0
0
0
0
0
0
0
0
0
0
0
0
0
0
0
0
0
0
0
0
0
0
0
0
0
0
0
0
0
0
0
0
0
0
0
0
0
0
0
0
0
0
0
0
0
0
0
0
0
0
0
0
0
0
0
0
0
0
0
0
0
0
0
0
0
0
0
0
0
0
0
0
0
0
0
0
0
0
0
0
0
0
0
0
0
0
0
0
0
0
0
0
0
0
0
0
0
0
0
0
0
0
0
0
0
0
0
0
0
0
0
0
0
0
0
0
0
0
0
0
0
0
0
0
0
0
0
0
0
0
0
0
0
0
0
0
0
0
0
0
0
0
0
0
0
0
0
0
0
0
0
0
0
0
0
0
0
0
0
0
0
0
0
0
0
0
0
0
0
0
0
0
0
0
0
0
0
0
0
0
0
0
0
0
0
0
0
0
0
0
0
0
0
0
0
0
0
0
0
0
0
0
0
0
0
0
0
0
0
0
0
0
0
0
0
0
0
0
0
0
0
0
0
0
0
0
0
0
0
0
0
0
0
0
0
0
0
0
0
0
0
0
0
0
0
0
0
0
0
0
0
0
0
0
0
0
0
0
0
0
0
0
0
0
0
0
0
0
0
0
0
0
0
0
0
0
0
0
0
0
0
0
0
0
0
0
0
0
0
0
0
0
0
0
0
0
0
0
0
0
0
0
0
0
0
0
0
0
0
0
0
0
0
0
0
0
0
0
0
0
0
0
0
0
0
0
0
0
0
0
0
0
0
0
0
0
0
0
0
0
0
0
0
0
0
0
0
0
0
0
0
0
0
0
0
0
0
0
0
0
0
0
0
0
0
0
0
0
0
0
0
0
0
0
0
0
0
0
0
0
0
0
0
0
0
0
0
0
0
0
0
0
0
0
0
0
0
0
0
0
0
0
0
0
0
0
0
0
0
0
0
0
0
0
0
0
0
0
0
0
0
0
0
0
0
0
0
0
0
0
0
0
0
0
0
0
0
0
0
0
0
0
0
0
0
0
0
0
0
0
0
0
0
0
0
0
0
0
0
0
0
0
0
0
0
0
0
0
0
0
0
0
0
0
0
0
0
0
0
0
0
0
0
0
0
0
0
0
0
0
0
0
0
0
0
0
0
0
0
0
0
0
0
0
0
0
0
0
0
0
0
0
0
0
0
0
0
0
0
0
0
0
0
0
0
0
0
0
0
0
0
0
0
0
0
0
0
0
0
0
0
0
0
0
0
0
0
0
0
0
0
0
0
0
0
0
0
0
0
0
0
0
0
0
0
0
0
0
0
0
0
0
0
0
0
0
0
0
0
0
0
0
0
0
0
0
0
0
0
0
0
0
0
0
0
0
0
0
0
0
0
0
0
0
0
0
0
0
0
0
0
0
0
0
0
0
0
0
0
0
0
0
0
0
0
0
0
0
0
0
0
0
0
0
0
0
0
0
0
0
0
0
0
0
0
0
0
0
0
0
0
0
0
0
0
0
0
0
0
0
0
0
0
0
0
0
0
0
0
0
0
0
0
0
0
0
0
0
0
0
0
0
0
0
0
0
0
0
0
0
0
0
0
0
0
0
0
0
0
0
0
0
0
0
0
0
0
0
0
0
0
0
0
0
0
0
0
0
0
0
0
0
0
0
0
0
0
0
0
0
0
0
0
0
0
0
0
0
0
0
0
0
0
0
0
0
0
0
0
0
0
0
0
0
0
0
0
0
0
0
0
0
0
0
0
0
0
0
0
0
0
0
0
0
0
0
0
0
0
0
0
0
0
0
0
0
0
0
0
0
0
0
0
0
0
0
0
0
0
0
0
0
0
0
0
0
0
0
0
0
0
0
0
0
0
0
0
0
0
0
0
0
0
0
0
0
0
0
0
0
0
0
0
0
0
0
0
0
0
0
0
0
0
0
0
0
0
0
0
0
0
0
0
0
0
0
0
0
0
0
0
0
0
0
0
0
0
0
0
0
0
0
0
0
0
0
0
0
0
0
0
0
0
0
0
0
0
0
0
0
0
0
0
0
0
0
0
0
0
0
0
0
0
0
0
0
0
0
0
0
0
0
0
0
0
0
0
0
0
0
0
0
0
0
0
0
0
0
0
0
0
0
0
0
0
0
0
0
0
0
0
0
0
0
0
0
0
0
0
0
0
0
0
0
0
0
0
0
0
0
0
0
0
0
0
0
0
0
0
0
0
0
0
0
0
0
0
0
0
0
0
0
0
0
0
0
0
0
0
0
0
0
0
0
0
0
0
0
0
0
0
0
0
0
0
0
0
0
0
0
0
0
0
0
0
0
0
0
0
0
0
0
0
0
0
0
0
0
0
0
0
0
0
0
0
0
0
0
0
0
0
0
0
0
0
0
0
0
0
0
0
0
0
0
0
0
0
0
0
0
0
0
0
0
0
0
0
0
0
0
0
0
0
0
0
0
0
0
0
0
0
0
0
0
0
0
0
0
0
0
0
0
0
0
0
0
0
0
0
0
0
0
0
0
0
0
0
0
0
0
0
0
0
0
0
0
0
0
0
0
0
0
0
0
0
0
0
0
0
0
0
0
0
0
0
0
0
0
0
0
0
0
0
0
0
0
0
0
0
0
0
0
0
0
0
0
0
0
0
0
0
0
0
0
0
0
0
0
0
0
0
0
0
0
0
0
0
0
0
0
0
0
0
0
0
0
0
0
0
0
0
0
0
0
0
0
0
0
0
0
0
0
0
0
0
0
0
0
0
0
0
0
0
0
0
0
0
0
0
0
0
0
0
0
0
0
0
0
0
0
0
0
0
0
0
0
0
0
0
0
0
0
0
0
0
0
0
0
0
0
0
0
0
0
0
0
0
0
0
0
0
0
0
0
0
0
0
0
0
0
0
0
0
0
0
0
0
0
0
0
0
0
0
0
0
0
0
0
0
0
0
0
0
0
0
0
0
0
0
0
0
0
0
0
0
0
0
0
0
0
0
0
0
0
0
0
0
0
0
0
0
0
0
0
0
0
0
0
0
0
0
0
0
0
0
0
0
0
0
0
0
0
0
0
0
0
0
0
0
0
0
0
0
0
0
0
0
0
0
0
0
0
0
0
0
0
0
0
0
0
0
0
0
0
0
0
0
0
0
0
0
0
0
0
0
0
0
0
0
0
0
0
0
0
0
0
0
0
0
0
0
0
0
0
0
0
0
0
0
0
0
0
0
0
0
0
0
0
0
0
0
0
0
0
0
0
0
0
0
0
0
0
0
0
0
0
0
0
0
0
0
0
0
0
0
0
0
0
0
0
0
0
0
0
0
0
0
0
0
0
0
0
0
0
0
0
0
0
0
0
0
0
0
0
0
0
0
0
0
0
0
0
0
0
0
0
0
0
0
0
0
0
0
0
0
0
0
0
0
0
0
0
0
0
0
0
0
0
0
0
0
0
0
0
0
0
0
0
0
0
0
0
0
0
0
0
0
0
0
0
0
0
0
0
0
0
0
0
0
0
0
0
0
0
0
0
0
0
0
0
0
0
0
0
0
0
0
0
0
0
0
0
0
0
0
0
0
0
0
0
0
0
0
0
0
0
0
0
0
0
0
0
0
0
0
0
0
0
0
0
0
0
0
0
0
0
0
0
0
0
0
0
0
0
0
0
0
0
0
0
0
0
0
0
0
0
0
0
0
0
0
0
0
0
0
0
0
0
0
0
0
0
0
0
0
0
0
0
0
0
0
0
0
0
0
0
0
0
0
0
0
0
0
0
0
0
0
0
0
0
0
0
0
0
0
0
0
0
0
0
0
0
0
0
0
0
0
0
0
0
0
0
0
0
0
0
0
0
0
0
0
0
0
0
0
0
0
0
0
0
0
0
0
0
0
0
0
0
0
0
0
0
0
0
0
0
0
0
0
0
0
0
0
0
0
0
0
0
0
0
0
0
0
0
0
0
0
0
0
0
0
0
0
0
0
0
0
0
0
0
0
0
0
0
0
0
0
0
0
0
0
0
0
0
0
0
0
0
0
0
0
0
0
0
0
0
0
0
0
0
0
0
0
0
0
0
0
0
0
0
0
0
0
0
0
0
0
0
0
0
0
0
0
0
0
0
0
0
0
0
0
0
0
0
0
0
0
0
0
0
0
0
0
0
0
0
0
0
0
0
0
0
0
0
0
0
0
0
0
0
0
0
0
0
0
0
0
0
0
0
0
0
0
0
0
0
0
0
0
0
0
0
0
0
0
0
0
0
0
0
0
0
0
0
0
0
0
0
0
0
0
0
0
0
0
0
0
0
0
0
0
0
0
0
0
0
0
0
0
0
0
0
0
0
0
0
0
0
0
0
0
0
0
0
0
0
0
0
0
0
0
0
0
0
0
9.83415e-25
1.33771e-21
1.72919e-21
1.81376e-21
1.77172e-21
1.67017e-21
1.53967e-21
1.39622e-21
1.24917e-21
1.10427e-21
9.65234e-22
8.34456e-22
7.13486e-22
6.03248e-22
5.04194e-22
4.16404e-22
3.39655e-22
2.73483e-22
2.17236e-22
1.70122e-22
1.31253e-22
9.96888e-23
7.4477e-23
5.46835e-23
3.94221e-23
2.78764e-23
1.93141e-23
1.30962e-23
8.67942e-24
5.6145e-24
3.53951e-24
2.17099e-24
1.29313e-24
7.46427e-25
4.16546e-25
2.24126e-25
1.15908e-25
5.7403e-26
2.7106e-26
1.21404e-26
5.12454e-27
2.02239e-27
7.38667e-28
2.46395e-28
7.37254e-29
1.92933e-29
4.25168e-30
7.41782e-31
9.12197e-32
5.87703e-33
1.51641e-05
1.41617e-05
1.32562e-05
1.23534e-05
1.14161e-05
1.04532e-05
9.46487e-06
8.44007e-06
7.37827e-06
6.47056e-06
5.65178e-06
4.91032e-06
4.23863e-06
3.63156e-06
3.0854e-06
2.59713e-06
2.16406e-06
1.78349e-06
1.45252e-06
1.16803e-06
9.26569e-07
7.2443e-07
5.57694e-07
4.22325e-07
3.14264e-07
2.29542e-07
1.64378e-07
1.15266e-07
7.90414e-08
5.29279e-08
3.45555e-08
2.19591e-08
1.3557e-08
8.11448e-09
4.69772e-09
2.62352e-09
1.40902e-09
7.25146e-10
3.5609e-10
1.65996e-10
7.29985e-11
3.00479e-11
1.14621e-11
3.9993e-12
1.25397e-12
3.44597e-13
7.99407e-14
1.47243e-14
1.91801e-15
1.31368e-16
2.89421e-05
2.7522e-05
2.65544e-05
2.56637e-05
2.48091e-05
2.40296e-05
2.3363e-05
2.28037e-05
2.23212e-05
2.1698e-05
2.09427e-05
2.00551e-05
1.90331e-05
1.78737e-05
1.65805e-05
1.52444e-05
1.3844e-05
1.24102e-05
1.09742e-05
9.56597e-06
8.21339e-06
6.94065e-06
5.7675e-06
4.70856e-06
3.77292e-06
2.9642e-06
2.28084e-06
1.71683e-06
1.26256e-06
9.05891e-07
6.3322e-07
4.3051e-07
2.84174e-07
1.81759e-07
1.12394e-07
6.70222e-08
3.84279e-08
2.1112e-08
1.10685e-08
5.51048e-09
2.58937e-09
1.13975e-09
4.654e-10
1.74059e-10
5.85995e-11
1.73274e-11
4.33653e-12
8.64473e-13
1.22347e-13
9.14337e-15
3.04186e-05
2.90576e-05
2.82386e-05
2.74167e-05
2.65879e-05
2.57958e-05
2.51075e-05
2.45294e-05
2.40397e-05
2.36141e-05
2.32343e-05
2.28881e-05
2.25691e-05
2.22748e-05
2.19985e-05
2.16457e-05
2.11936e-05
2.06128e-05
1.98728e-05
1.89861e-05
1.79117e-05
1.6646e-05
1.52168e-05
1.36636e-05
1.20353e-05
1.03853e-05
8.76753e-06
7.23196e-06
5.8205e-06
4.56428e-06
3.48211e-06
2.58032e-06
1.854e-06
1.2892e-06
8.65723e-07
5.60051e-07
3.4806e-07
2.07126e-07
1.17565e-07
6.3349e-08
3.22177e-08
1.53522e-08
6.79038e-09
2.75348e-09
1.00643e-09
3.23696e-10
8.83319e-11
1.92598e-11
2.99309e-12
2.46682e-13
3.13577e-05
3.00789e-05
2.94249e-05
2.87334e-05
2.8026e-05
2.73325e-05
2.6728e-05
2.62263e-05
2.58042e-05
2.54311e-05
2.5082e-05
2.47395e-05
2.43938e-05
2.4041e-05
2.36819e-05
2.33212e-05
2.29665e-05
2.26275e-05
2.2316e-05
2.20021e-05
2.16628e-05
2.1269e-05
2.07803e-05
2.01473e-05
1.92671e-05
1.81266e-05
1.67356e-05
1.51277e-05
1.33583e-05
1.14993e-05
9.63056e-06
7.83117e-06
6.17054e-06
4.70148e-06
3.45615e-06
2.44531e-06
1.6606e-06
1.07896e-06
6.68232e-07
3.92705e-07
2.17773e-07
1.1316e-07
5.46021e-08
2.41735e-08
9.65919e-09
3.40241e-09
1.0194e-09
2.44844e-10
4.20931e-11
3.85612e-12
3.20469e-05
3.08593e-05
3.03555e-05
2.98039e-05
2.92424e-05
2.86862e-05
2.82048e-05
2.78148e-05
2.74917e-05
2.71993e-05
2.69047e-05
2.65835e-05
2.62213e-05
2.58127e-05
2.53597e-05
2.48703e-05
2.43563e-05
2.3832e-05
2.33125e-05
2.28131e-05
2.23485e-05
2.19335e-05
2.15794e-05
2.12803e-05
2.10253e-05
2.07722e-05
2.04333e-05
1.98517e-05
1.89776e-05
1.77858e-05
1.62844e-05
1.45184e-05
1.25654e-05
1.05263e-05
8.51096e-06
6.62271e-06
4.94463e-06
3.53048e-06
2.40159e-06
1.54953e-06
9.43175e-07
5.37942e-07
2.85001e-07
1.38642e-07
6.09482e-08
2.3664e-08
7.83562e-09
2.08735e-09
3.99892e-10
4.1046e-11
3.25895e-05
3.14973e-05
3.11226e-05
3.07014e-05
3.02789e-05
2.98607e-05
2.95051e-05
2.92284e-05
2.90063e-05
2.87982e-05
2.85636e-05
2.82705e-05
2.78992e-05
2.74427e-05
2.69052e-05
2.62999e-05
2.5645e-05
2.49614e-05
2.42695e-05
2.35877e-05
2.29317e-05
2.23144e-05
2.17464e-05
2.1237e-05
2.07959e-05
2.04361e-05
2.01793e-05
2.00259e-05
1.99343e-05
1.97605e-05
1.93485e-05
1.8621e-05
1.75269e-05
1.60577e-05
1.42558e-05
1.22123e-05
1.0054e-05
7.9225e-06
5.95007e-06
4.23917e-06
2.84948e-06
1.79507e-06
1.05086e-06
5.65329e-07
2.75201e-07
1.18558e-07
4.36833e-08
1.30006e-08
2.79746e-09
3.24595e-10
3.30348e-05
3.20393e-05
3.17726e-05
3.14654e-05
3.11624e-05
3.08652e-05
3.06194e-05
3.04403e-05
3.03056e-05
3.01731e-05
2.99972e-05
2.97397e-05
2.93762e-05
2.88987e-05
2.83144e-05
2.76417e-05
2.69057e-05
2.61337e-05
2.53508e-05
2.45781e-05
2.38313e-05
2.31211e-05
2.24538e-05
2.18337e-05
2.12638e-05
2.07481e-05
2.0292e-05
1.99037e-05
1.95999e-05
1.9409e-05
1.93314e-05
1.9331e-05
1.91629e-05
1.87254e-05
1.7925e-05
1.67031e-05
1.50579e-05
1.30558e-05
1.08251e-05
8.5338e-06
6.35711e-06
4.44355e-06
2.88963e-06
1.72906e-06
9.3783e-07
4.51242e-07
1.86316e-07
6.24235e-08
1.52175e-08
2.01629e-09
3.34101e-05
3.25111e-05
3.23329e-05
3.21207e-05
3.19146e-05
3.1715e-05
3.15564e-05
3.14527e-05
3.13852e-05
3.1314e-05
3.11925e-05
3.09796e-05
3.06485e-05
3.01914e-05
2.96177e-05
2.89502e-05
2.82186e-05
2.74537e-05
2.66825e-05
2.59255e-05
2.51956e-05
2.44995e-05
2.38396e-05
2.32162e-05
2.263e-05
2.20831e-05
2.15786e-05
2.1121e-05
2.07151e-05
2.03663e-05
2.00796e-05
1.98485e-05
1.96908e-05
1.96447e-05
1.9502e-05
1.91176e-05
1.83787e-05
1.71951e-05
1.55333e-05
1.34416e-05
1.10535e-05
8.5657e-06
6.19649e-06
4.13702e-06
2.51124e-06
1.35696e-06
6.31958e-07
2.40194e-07
6.69459e-08
1.02452e-08
3.37321e-05
3.29283e-05
3.2821e-05
3.2685e-05
3.25538e-05
3.24285e-05
3.23346e-05
3.22842e-05
3.22634e-05
3.2238e-05
3.21647e-05
3.20037e-05
3.17294e-05
3.13346e-05
3.08308e-05
3.02424e-05
2.96001e-05
2.89339e-05
2.82683e-05
2.7619e-05
2.69932e-05
2.6392e-05
2.58139e-05
2.52584e-05
2.47276e-05
2.42272e-05
2.37644e-05
2.33463e-05
2.29782e-05
2.26628e-05
2.23997e-05
2.21861e-05
2.20176e-05
2.18232e-05
2.15864e-05
2.13754e-05
2.10688e-05
2.0492e-05
1.95294e-05
1.80808e-05
1.61055e-05
1.36597e-05
1.09072e-05
8.09493e-06
5.49642e-06
3.34241e-06
1.76338e-06
7.65296e-07
2.46085e-07
4.40501e-08
3.40119e-05
3.33009e-05
3.3249e-05
3.31715e-05
3.30959e-05
3.30247e-05
3.29763e-05
3.29611e-05
3.29699e-05
3.29759e-05
3.29428e-05
3.28365e-05
3.26345e-05
3.23321e-05
3.19411e-05
3.14851e-05
3.0992e-05
3.04873e-05
2.99887e-05
2.95044e-05
2.9034e-05
2.85733e-05
2.81184e-05
2.76708e-05
2.7238e-05
2.68321e-05
2.64668e-05
2.61537e-05
2.59002e-05
2.57085e-05
2.55769e-05
2.55005e-05
2.54726e-05
2.54843e-05
2.5524e-05
2.54678e-05
2.52084e-05
2.47777e-05
2.415e-05
2.3141e-05
2.16393e-05
1.95556e-05
1.68773e-05
1.37155e-05
1.03176e-05
7.0272e-06
4.19765e-06
2.08745e-06
7.8046e-07
1.65632e-07
3.42572e-05
3.36359e-05
3.36257e-05
3.35911e-05
3.3555e-05
3.35214e-05
3.35038e-05
3.35104e-05
3.35362e-05
3.35619e-05
3.35604e-05
3.35049e-05
3.33785e-05
3.31787e-05
3.2917e-05
3.26138e-05
3.22917e-05
3.19689e-05
3.1655e-05
3.13499e-05
3.10466e-05
3.07372e-05
3.04183e-05
3.00953e-05
2.97817e-05
2.9496e-05
2.9256e-05
2.90746e-05
2.89582e-05
2.8907e-05
2.89182e-05
2.89878e-05
2.91132e-05
2.92921e-05
2.95217e-05
2.97953e-05
3.00994e-05
3.02875e-05
3.01234e-05
2.95065e-05
2.84664e-05
2.68253e-05
2.44668e-05
2.13317e-05
1.74885e-05
1.31889e-05
8.86638e-06
5.05062e-06
2.20927e-06
5.64296e-07
3.44735e-05
3.3938e-05
3.39578e-05
3.39527e-05
3.39431e-05
3.39346e-05
3.39371e-05
3.39566e-05
3.3991e-05
3.4028e-05
3.40488e-05
3.40352e-05
3.39756e-05
3.38696e-05
3.37272e-05
3.35645e-05
3.33975e-05
3.32371e-05
3.30852e-05
3.29357e-05
3.27779e-05
3.2603e-05
3.241e-05
3.22083e-05
3.20153e-05
3.18516e-05
3.17343e-05
3.1673e-05
3.16698e-05
3.17215e-05
3.18242e-05
3.19766e-05
3.21813e-05
3.24437e-05
3.27696e-05
3.31624e-05
3.36205e-05
3.41348e-05
3.46866e-05
3.51644e-05
3.52191e-05
3.45694e-05
3.3139e-05
3.07454e-05
2.72269e-05
2.25664e-05
1.70045e-05
1.11106e-05
5.73849e-06
1.80301e-06
3.46648e-05
3.42108e-05
3.42504e-05
3.42638e-05
3.42707e-05
3.42781e-05
3.4293e-05
3.43198e-05
3.43579e-05
3.44001e-05
3.44349e-05
3.44511e-05
3.44419e-05
3.44081e-05
3.43573e-05
3.43008e-05
3.42486e-05
3.42053e-05
3.41684e-05
3.41288e-05
3.40755e-05
3.40017e-05
3.3909e-05
3.38087e-05
3.37182e-05
3.36551e-05
3.36318e-05
3.36522e-05
3.37137e-05
3.38112e-05
3.39418e-05
3.41077e-05
3.43155e-05
3.45741e-05
3.48916e-05
3.52723e-05
3.57159e-05
3.62165e-05
3.67616e-05
3.73326e-05
3.79073e-05
3.84656e-05
3.8686e-05
3.82432e-05
3.66662e-05
3.35548e-05
2.85858e-05
2.17363e-05
1.3584e-05
5.48624e-06
3.48344e-05
3.44568e-05
3.45078e-05
3.45311e-05
3.45471e-05
3.45636e-05
3.45855e-05
3.46158e-05
3.46545e-05
3.46979e-05
3.47397e-05
3.47737e-05
3.47963e-05
3.48085e-05
3.48156e-05
3.48244e-05
3.484e-05
3.48633e-05
3.48898e-05
3.49111e-05
3.49187e-05
3.49083e-05
3.48835e-05
3.48546e-05
3.48355e-05
3.48379e-05
3.48683e-05
3.49261e-05
3.50068e-05
3.51062e-05
3.5224e-05
3.53651e-05
3.55372e-05
3.57477e-05
3.60007e-05
3.62961e-05
3.66295e-05
3.69919e-05
3.73699e-05
3.7745e-05
3.80953e-05
3.83997e-05
3.86444e-05
3.88285e-05
3.89267e-05
3.86288e-05
3.73116e-05
3.38906e-05
2.68596e-05
1.53146e-05
3.49846e-05
3.46778e-05
3.47333e-05
3.47602e-05
3.47802e-05
3.48008e-05
3.48258e-05
3.48569e-05
3.48942e-05
3.49361e-05
3.49793e-05
3.50208e-05
3.50589e-05
3.50943e-05
3.51297e-05
3.51686e-05
3.52132e-05
3.52624e-05
3.53123e-05
3.53566e-05
3.53903e-05
3.54117e-05
3.54243e-05
3.54358e-05
3.54548e-05
3.54879e-05
3.55371e-05
3.56003e-05
3.5674e-05
3.57566e-05
3.58502e-05
3.59598e-05
3.6091e-05
3.62469e-05
3.64267e-05
3.66259e-05
3.68373e-05
3.70512e-05
3.7255e-05
3.74332e-05
3.75684e-05
3.7645e-05
3.76537e-05
3.75949e-05
3.74789e-05
3.73238e-05
3.7151e-05
3.69836e-05
3.68058e-05
3.55902e-05
3.51174e-05
3.48752e-05
3.49299e-05
3.49562e-05
3.49765e-05
3.49979e-05
3.50231e-05
3.50528e-05
3.50873e-05
3.51256e-05
3.51664e-05
3.52081e-05
3.52499e-05
3.5292e-05
3.53355e-05
3.53816e-05
3.54307e-05
3.54817e-05
3.55317e-05
3.55773e-05
3.5616e-05
3.56477e-05
3.5675e-05
3.57024e-05
3.57345e-05
3.57742e-05
3.58217e-05
3.58759e-05
3.59353e-05
3.60005e-05
3.6074e-05
3.6159e-05
3.62578e-05
3.63697e-05
3.64912e-05
3.6616e-05
3.6737e-05
3.68456e-05
3.69323e-05
3.69865e-05
3.69982e-05
3.69609e-05
3.68751e-05
3.67489e-05
3.65971e-05
3.64388e-05
3.62949e-05
3.61879e-05
3.61421e-05
3.6044e-05
3.52342e-05
3.50501e-05
3.50999e-05
3.5123e-05
3.51415e-05
3.51615e-05
3.51848e-05
3.52116e-05
3.52419e-05
3.52753e-05
3.53112e-05
3.53486e-05
3.53872e-05
3.54268e-05
3.54674e-05
3.55092e-05
3.55518e-05
3.55944e-05
3.56356e-05
3.56737e-05
3.57078e-05
3.57384e-05
3.57669e-05
3.57957e-05
3.58269e-05
3.58618e-05
3.59007e-05
3.59436e-05
3.59906e-05
3.60428e-05
3.61019e-05
3.61691e-05
3.62441e-05
3.63245e-05
3.6406e-05
3.64827e-05
3.65483e-05
3.65957e-05
3.66181e-05
3.66092e-05
3.65655e-05
3.6488e-05
3.63834e-05
3.62634e-05
3.61431e-05
3.60383e-05
3.59636e-05
3.59315e-05
3.59493e-05
3.59248e-05
3.53364e-05
3.52032e-05
3.52455e-05
3.52642e-05
3.52798e-05
3.5297e-05
3.5317e-05
3.53397e-05
3.5365e-05
3.53927e-05
3.54223e-05
3.54535e-05
3.54856e-05
3.55186e-05
3.55519e-05
3.55855e-05
3.56188e-05
3.56513e-05
3.56824e-05
3.57113e-05
3.57381e-05
3.5763e-05
3.5787e-05
3.5811e-05
3.58363e-05
3.58636e-05
3.58937e-05
3.59271e-05
3.59644e-05
3.60065e-05
3.60539e-05
3.61065e-05
3.6163e-05
3.62208e-05
3.62756e-05
3.63225e-05
3.63556e-05
3.63693e-05
3.63589e-05
3.63218e-05
3.62591e-05
3.61762e-05
3.60824e-05
3.59899e-05
3.5911e-05
3.58562e-05
3.58327e-05
3.58424e-05
3.58801e-05
3.58656e-05
3.54249e-05
3.53351e-05
3.53685e-05
3.53825e-05
3.53947e-05
3.54085e-05
3.54244e-05
3.54425e-05
3.54625e-05
3.54841e-05
3.55072e-05
3.55313e-05
3.55562e-05
3.55815e-05
3.56069e-05
3.56321e-05
3.56566e-05
3.56801e-05
3.57025e-05
3.57234e-05
3.57429e-05
3.57614e-05
3.57793e-05
3.57973e-05
3.58162e-05
3.58367e-05
3.58594e-05
3.5885e-05
3.59139e-05
3.59466e-05
3.59831e-05
3.60228e-05
3.60643e-05
3.61049e-05
3.61411e-05
3.61683e-05
3.61817e-05
3.61771e-05
3.61518e-05
3.6106e-05
3.60437e-05
3.5972e-05
3.59006e-05
3.58394e-05
3.57969e-05
3.5778e-05
3.57831e-05
3.58074e-05
3.58411e-05
3.58188e-05
3.55004e-05
3.54461e-05
3.54703e-05
3.548e-05
3.54889e-05
3.54991e-05
3.5511e-05
3.55243e-05
3.5539e-05
3.55548e-05
3.55716e-05
3.55891e-05
3.5607e-05
3.56251e-05
3.56432e-05
3.56609e-05
3.5678e-05
3.56942e-05
3.57095e-05
3.57238e-05
3.57372e-05
3.57499e-05
3.57624e-05
3.57751e-05
3.57885e-05
3.58032e-05
3.58197e-05
3.58384e-05
3.58597e-05
3.58836e-05
3.59102e-05
3.59386e-05
3.59676e-05
3.59949e-05
3.60174e-05
3.60313e-05
3.60331e-05
3.60198e-05
3.59909e-05
3.59482e-05
3.58967e-05
3.58435e-05
3.57964e-05
3.57625e-05
3.57459e-05
3.57471e-05
3.57624e-05
3.5785e-05
3.58067e-05
3.57777e-05
3.55636e-05
3.55366e-05
3.55521e-05
3.55583e-05
3.55642e-05
3.55711e-05
3.55792e-05
3.55882e-05
3.55981e-05
3.56087e-05
3.56199e-05
3.56315e-05
3.56434e-05
3.56554e-05
3.56672e-05
3.56787e-05
3.56898e-05
3.57002e-05
3.571e-05
3.57191e-05
3.57276e-05
3.57357e-05
3.57438e-05
3.57521e-05
3.5761e-05
3.57709e-05
3.57821e-05
3.57948e-05
3.58093e-05
3.58256e-05
3.58435e-05
3.58624e-05
3.58813e-05
3.58983e-05
3.59109e-05
3.59165e-05
3.59125e-05
3.58976e-05
3.58721e-05
3.58387e-05
3.58021e-05
3.57679e-05
3.57415e-05
3.57269e-05
3.57248e-05
3.57334e-05
3.5748e-05
3.5763e-05
3.57732e-05
3.57442e-05
3.56149e-05
3.56067e-05
3.5615e-05
3.56185e-05
3.5622e-05
3.56261e-05
3.5631e-05
3.56363e-05
3.56422e-05
3.56485e-05
3.56552e-05
3.56621e-05
3.5669e-05
3.5676e-05
3.56829e-05
3.56896e-05
3.5696e-05
3.5702e-05
3.57075e-05
3.57127e-05
3.57176e-05
3.57223e-05
3.57269e-05
3.57319e-05
3.57372e-05
3.57432e-05
3.57499e-05
3.57577e-05
3.57665e-05
3.57764e-05
3.57873e-05
3.57987e-05
3.58097e-05
3.58191e-05
3.58252e-05
3.58262e-05
3.58207e-05
3.58084e-05
3.579e-05
3.5768e-05
3.57458e-05
3.57273e-05
3.57155e-05
3.57117e-05
3.57153e-05
3.57237e-05
3.57334e-05
3.57408e-05
3.57435e-05
3.57204e-05
3.56546e-05
3.56565e-05
3.56597e-05
3.56613e-05
3.5663e-05
3.56651e-05
3.56674e-05
3.56701e-05
3.5673e-05
3.56761e-05
3.56793e-05
3.56826e-05
3.5686e-05
3.56894e-05
3.56927e-05
3.56959e-05
3.5699e-05
3.57018e-05
3.57044e-05
3.57068e-05
3.57091e-05
3.57114e-05
3.57137e-05
3.57161e-05
3.57187e-05
3.57217e-05
3.57252e-05
3.57291e-05
3.57336e-05
3.57386e-05
3.57441e-05
3.57498e-05
3.57552e-05
3.57595e-05
3.57617e-05
3.5761e-05
3.57567e-05
3.57489e-05
3.57384e-05
3.57267e-05
3.57161e-05
3.57083e-05
3.57046e-05
3.57053e-05
3.57092e-05
3.57144e-05
3.5719e-05
3.57212e-05
3.57207e-05
3.57065e-05
3.5683e-05
3.5686e-05
3.56868e-05
3.56872e-05
3.56878e-05
3.56885e-05
3.56893e-05
3.56902e-05
3.56912e-05
3.56923e-05
3.56934e-05
3.56945e-05
3.56956e-05
3.56968e-05
3.56979e-05
3.56989e-05
3.56999e-05
3.57009e-05
3.57017e-05
3.57025e-05
3.57033e-05
3.5704e-05
3.57048e-05
3.57056e-05
3.57066e-05
3.57076e-05
3.57088e-05
3.57102e-05
3.57118e-05
3.57136e-05
3.57156e-05
3.57176e-05
3.57194e-05
3.57207e-05
3.57213e-05
3.57206e-05
3.57186e-05
3.57153e-05
3.57113e-05
3.57071e-05
3.57036e-05
3.57015e-05
3.5701e-05
3.57021e-05
3.57039e-05
3.57059e-05
3.57072e-05
3.57074e-05
3.57065e-05
3.5701e-05
0
0
0
0
0
0
0
0
0
0
0
0
0
0
0
0
0
0
0
0
0
0
0
0
0
0
0
0
0
0
0
0
0
0
0
0
0
0
0
0
0
0
0
0
0
0
0
0
0
0
0
0
0
0
0
0
0
0
0
0
0
0
0
0
0
0
0
0
0
0
0
0
0
0
0
0
0
0
0
0
0
0
0
0
0
0
0
0
0
0
0
0
0
0
0
0
0
0
0
0
0
0
0
0
0
0
0
0
0
0
0
0
0
0
0
0
0
0
0
0
0
0
0
0
0
0
0
0
0
0
0
0
0
0
0
0
0
0
0
0
0
0
0
0
0
0
0
0
0
0
0
0
0
0
0
0
0
0
0
0
0
0
0
0
0
0
0
0
0
0
0
0
0
0
0
0
0
0
0
0
0
0
0
0
0
0
0
0
0
0
0
0
0
0
0
0
0
0
0
0
0
0
0
0
0
0
0
0
0
0
0
0
0
0
0
0
0
0
0
0
0
0
0
0
0
0
0
0
0
0
0
0
0
0
0
0
0
0
0
0
0
0
0
0
0
0
0
0
0
0
0
0
0
0
0
0
0
0
0
0
0
0
0
0
0
0
0
0
0
0
0
0
0
0
0
0
0
0
0
0
0
0
0
0
0
0
0
0
0
0
0
0
0
0
0
0
0
0
0
0
0
0
0
0
0
0
0
0
0
0
0
0
0
0
0
0
0
0
0
0
0
0
0
0
0
0
0
0
0
0
0
0
0
0
0
0
0
0
0
0
0
0
0
0
0
0
0
0
0
0
0
0
0
0
0
0
0
0
0
0
0
0
0
0
0
0
0
0
0
0
0
0
0
0
0
0
0
0
0
0
0
0
0
0
0
0
0
0
0
0
0
0
0
0
0
0
0
0
0
0
0
0
0
0
0
0
0
0
0
0
0
0
0
0
0
0
0
0
0
0
0
0
0
0
0
0
0
0
0
0
0
0
0
0
0
0
0
0
0
0
0
0
0
0
0
0
0
0
0
0
0
0
0
0
0
0
0
0
0
0
0
0
0
0
0
0
0
0
0
0
0
0
0
0
0
0
0
0
0
0
0
0
0
0
0
0
0
0
0
0
0
0
0
0
0
0
0
0
0
0
0
0
0
0
0
0
0
0
0
0
0
0
0
0
0
0
0
0
0
0
0
0
0
0
0
0
0
0
0
0
0
0
0
0
0
0
0
0
0
0
0
0
0
0
0
0
0
0
0
0
0
0
0
0
0
0
0
0
0
0
0
0
0
0
0
0
0
0
0
0
0
0
0
0
0
0
0
0
0
0
0
0
0
0
0
0
0
0
0
0
0
0
0
0
0
0
0
0
0
0
0
0
0
0
0
0
0
0
0
0
0
0
0
0
0
0
0
0
0
0
0
0
0
0
0
0
0
0
0
0
0
0
0
0
0
0
0
0
0
0
0
0
0
0
0
0
0
0
0
0
0
0
0
0
0
0
0
0
0
0
0
0
0
0
0
0
0
0
0
0
0
0
0
0
0
0
0
0
0
0
0
0
0
0
0
0
0
0
0
0
0
0
0
0
0
0
0
0
0
0
0
0
0
0
0
0
0
0
0
0
0
0
0
0
0
0
0
0
0
0
0
0
0
0
0
0
0
0
0
0
0
0
0
0
0
0
0
0
0
0
0
0
0
0
0
0
0
0
0
0
0
0
0
0
0
0
0
0
0
0
0
0
0
0
0
0
0
0
0
0
0
0
0
0
0
0
0
0
0
0
0
0
0
0
0
0
0
0
0
0
0
0
0
0
0
0
0
0
0
0
0
0
0
0
0
0
0
0
0
0
0
0
0
0
0
0
0
0
0
0
0
0
0
0
0
0
0
0
0
0
0
0
0
0
0
0
0
0
0
0
0
0
0
0
0
0
0
0
0
0
0
0
0
0
0
0
0
0
0
0
0
0
0
0
0
0
0
0
0
0
0
0
0
0
0
0
0
0
0
0
0
0
0
0
0
0
0
0
0
0
0
0
0
0
0
0
0
0
0
0
0
0
0
0
0
0
0
0
0
0
0
0
0
0
0
0
0
0
0
0
0
0
0
0
0
0
0
0
0
0
0
0
0
0
0
0
0
0
0
0
0
0
0
0
0
0
0
0
0
0
0
0
0
0
0
0
0
0
0
0
0
0
0
0
0
0
0
0
0
0
0
0
0
0
0
0
0
0
0
0
0
0
0
0
0
0
0
0
0
0
0
0
0
0
0
0
0
0
0
0
0
0
0
0
0
0
0
0
0
0
0
0
0
0
0
0
0
0
0
0
0
0
0
0
0
0
0
0
0
0
0
0
0
0
0
0
0
0
0
0
0
0
0
0
0
0
0
0
0
0
0
0
0
0
0
0
0
0
0
0
0
0
0
0
0
0
0
0
0
0
0
0
0
0
0
0
0
0
0
0
0
0
0
0
0
0
0
0
0
0
0
0
0
0
0
0
0
0
0
0
0
0
0
0
0
0
0
0
0
0
0
0
0
0
0
0
0
0
0
0
0
0
0
0
0
0
0
0
0
0
0
0
0
0
0
0
0
0
0
0
0
0
0
0
0
0
0
0
0
0
0
0
0
0
0
0
0
0
0
0
0
0
0
0
0
0
0
0
0
0
0
0
0
0
0
0
0
0
0
0
0
0
0
0
0
0
0
0
0
0
0
0
0
0
0
0
0
0
0
0
0
0
0
0
0
0
0
0
0
0
0
0
0
0
0
0
0
0
0
0
0
0
0
0
0
0
0
0
0
0
0
0
0
0
0
0
0
0
0
0
0
0
0
0
0
0
0
0
0
0
8.97102e-25
2.72455e-24
4.10826e-24
5.28025e-24
6.31147e-24
7.2185e-24
7.997e-24
8.63653e-24
9.12438e-24
9.4497e-24
9.60608e-24
9.59299e-24
9.41632e-24
9.08815e-24
8.62612e-24
8.05238e-24
7.39223e-24
6.67267e-24
5.92093e-24
5.16296e-24
4.42227e-24
3.71889e-24
3.06865e-24
2.4829e-24
1.96842e-24
1.52776e-24
1.15974e-24
8.60143e-25
6.2255e-25
4.39138e-25
3.0145e-25
2.0105e-25
1.30037e-25
8.13958e-26
4.919e-26
2.86228e-26
1.59859e-26
8.53781e-27
4.34151e-27
2.09089e-27
9.47589e-28
4.00894e-28
1.56722e-28
5.5865e-29
1.78341e-29
4.97123e-30
1.16503e-30
2.15802e-31
2.81274e-32
1.91602e-33
1.42311e-05
1.3369e-05
1.24807e-05
1.15999e-05
1.06778e-05
9.73928e-06
8.78818e-06
7.81224e-06
6.81734e-06
5.97256e-06
5.21208e-06
4.52464e-06
3.90283e-06
3.34159e-06
2.83724e-06
2.38681e-06
1.98766e-06
1.63717e-06
1.3326e-06
1.07096e-06
8.4905e-07
6.63392e-07
5.1035e-07
3.86179e-07
2.87128e-07
2.09529e-07
1.49893e-07
1.0499e-07
7.1904e-08
4.80814e-08
3.1343e-08
1.98839e-08
1.22531e-08
7.31921e-09
4.22807e-09
2.3557e-09
1.26201e-09
6.47759e-10
3.17196e-10
1.4743e-10
6.46359e-11
2.65215e-11
1.0084e-11
3.50678e-12
1.09583e-12
3.00106e-13
6.93779e-14
1.27335e-14
1.65253e-15
1.12665e-16
2.7726e-05
2.65186e-05
2.55394e-05
2.46343e-05
2.37232e-05
2.28848e-05
2.21759e-05
2.15897e-05
2.10832e-05
2.0454e-05
1.97081e-05
1.88436e-05
1.78572e-05
1.67453e-05
1.55165e-05
1.4252e-05
1.29299e-05
1.15793e-05
1.02291e-05
8.90738e-06
7.63979e-06
6.44874e-06
5.35242e-06
4.36419e-06
3.49224e-06
2.73966e-06
2.10471e-06
1.5815e-06
1.16084e-06
8.3119e-07
5.79701e-07
3.93164e-07
2.5884e-07
1.65085e-07
1.01773e-07
6.04923e-08
3.45645e-08
1.89205e-08
9.88174e-09
4.90004e-09
2.29301e-09
1.005e-09
4.0858e-10
1.52126e-10
5.09827e-11
1.50058e-11
3.73806e-12
7.41652e-13
1.0445e-13
7.76062e-15
2.94511e-05
2.82862e-05
2.74531e-05
2.66118e-05
2.57122e-05
2.48389e-05
2.40901e-05
2.34728e-05
2.29594e-05
2.25201e-05
2.21327e-05
2.17829e-05
2.14631e-05
2.11695e-05
2.08894e-05
2.05345e-05
2.00837e-05
1.95103e-05
1.87861e-05
1.79323e-05
1.68963e-05
1.56808e-05
1.43128e-05
1.28309e-05
1.12817e-05
9.71614e-06
8.18538e-06
6.73633e-06
5.40814e-06
4.2295e-06
3.21728e-06
2.37656e-06
1.7018e-06
1.17906e-06
7.88671e-07
5.08089e-07
3.14379e-07
1.86217e-07
1.05184e-07
5.63899e-08
2.85276e-08
1.35201e-08
5.9467e-09
2.39765e-09
8.71306e-10
2.78594e-10
7.5574e-11
1.63791e-11
2.52967e-12
2.07016e-13
3.05582e-05
2.94592e-05
2.87952e-05
2.80859e-05
2.73113e-05
2.65328e-05
2.58623e-05
2.5317e-05
2.48678e-05
2.44785e-05
2.41197e-05
2.37714e-05
2.34223e-05
2.30669e-05
2.2705e-05
2.23404e-05
2.1981e-05
2.16374e-05
2.13227e-05
2.10015e-05
2.06569e-05
2.0261e-05
1.97802e-05
1.91542e-05
1.8289e-05
1.71744e-05
1.58218e-05
1.42659e-05
1.25618e-05
1.07796e-05
8.99643e-06
7.28772e-06
5.71862e-06
4.3377e-06
3.17345e-06
2.23381e-06
1.50872e-06
9.74649e-07
5.99986e-07
3.50375e-07
1.93026e-07
9.9622e-08
4.77351e-08
2.0983e-08
8.32368e-09
2.91048e-09
8.6555e-10
2.0633e-10
3.51991e-11
3.19719e-12
3.13746e-05
3.03513e-05
2.98423e-05
2.92762e-05
2.86584e-05
2.80245e-05
2.748e-05
2.7047e-05
2.66966e-05
2.6387e-05
2.60811e-05
2.57518e-05
2.53832e-05
2.49682e-05
2.45074e-05
2.40077e-05
2.34814e-05
2.29436e-05
2.24108e-05
2.18993e-05
2.14239e-05
2.09988e-05
2.0633e-05
2.03245e-05
2.00662e-05
1.98211e-05
1.94814e-05
1.89005e-05
1.80323e-05
1.68559e-05
1.53835e-05
1.36631e-05
1.17734e-05
9.81425e-06
7.89202e-06
6.10457e-06
4.5285e-06
3.21115e-06
2.16846e-06
1.38838e-06
8.38309e-07
4.74154e-07
2.49051e-07
1.20088e-07
5.23183e-08
2.01284e-08
6.60351e-09
1.74273e-09
3.307e-10
3.36003e-11
3.20194e-05
3.10765e-05
3.07004e-05
3.02682e-05
2.9802e-05
2.9319e-05
2.89084e-05
2.8593e-05
2.83457e-05
2.81213e-05
2.78753e-05
2.75731e-05
2.71937e-05
2.67286e-05
2.61807e-05
2.55625e-05
2.48925e-05
2.41922e-05
2.3483e-05
2.27841e-05
2.21115e-05
2.14777e-05
2.08931e-05
2.03673e-05
1.9912e-05
1.95448e-05
1.92918e-05
1.91551e-05
1.90926e-05
1.89102e-05
1.84836e-05
1.77402e-05
1.66359e-05
1.51701e-05
1.33923e-05
1.13984e-05
9.31586e-06
7.28226e-06
5.42202e-06
3.82735e-06
2.54762e-06
1.58856e-06
9.20152e-07
4.89628e-07
2.35699e-07
1.00391e-07
3.65658e-08
1.07562e-08
2.28735e-09
2.62207e-10
3.25496e-05
3.1689e-05
3.14236e-05
3.11082e-05
3.07732e-05
3.04257e-05
3.01358e-05
2.99247e-05
2.97687e-05
2.96224e-05
2.94367e-05
2.9171e-05
2.88001e-05
2.83148e-05
2.77213e-05
2.70374e-05
2.62884e-05
2.55013e-05
2.47015e-05
2.39099e-05
2.31421e-05
2.2409e-05
2.1718e-05
2.10747e-05
2.04843e-05
1.99529e-05
1.94889e-05
1.91035e-05
1.88184e-05
1.86635e-05
1.86405e-05
1.863e-05
1.8436e-05
1.79587e-05
1.71117e-05
1.58481e-05
1.41802e-05
1.21872e-05
1.0005e-05
7.80162e-06
5.74362e-06
3.96485e-06
2.54477e-06
1.50217e-06
8.03471e-07
3.81128e-07
1.55108e-07
5.12145e-08
1.23029e-08
1.60662e-09
3.2997e-05
3.22191e-05
3.20436e-05
3.18254e-05
3.1597e-05
3.1361e-05
3.11695e-05
3.10415e-05
3.09579e-05
3.08765e-05
3.07481e-05
3.05298e-05
3.01943e-05
2.97328e-05
2.91543e-05
2.84807e-05
2.77409e-05
2.69643e-05
2.61767e-05
2.53972e-05
2.46384e-05
2.39075e-05
2.32086e-05
2.25452e-05
2.19213e-05
2.13419e-05
2.0813e-05
2.03407e-05
1.99314e-05
1.95915e-05
1.932e-05
1.91278e-05
1.90436e-05
1.90291e-05
1.8855e-05
1.84147e-05
1.76007e-05
1.63368e-05
1.46112e-05
1.24949e-05
1.01378e-05
7.74093e-06
5.51179e-06
3.61894e-06
2.15898e-06
1.14601e-06
5.24123e-07
1.9559e-07
5.35216e-08
8.04869e-09
3.33812e-05
3.26851e-05
3.25811e-05
3.24408e-05
3.22947e-05
3.21448e-05
3.20284e-05
3.19612e-05
3.19297e-05
3.18981e-05
3.18213e-05
3.16588e-05
3.13843e-05
3.09904e-05
3.04879e-05
2.98997e-05
2.92545e-05
2.85799e-05
2.78973e-05
2.72204e-05
2.65558e-05
2.59059e-05
2.52728e-05
2.46607e-05
2.40767e-05
2.35302e-05
2.30307e-05
2.2586e-05
2.22013e-05
2.18781e-05
2.16155e-05
2.14101e-05
2.12351e-05
2.10338e-05
2.08433e-05
2.06858e-05
2.03322e-05
1.96791e-05
1.86147e-05
1.70567e-05
1.49953e-05
1.25205e-05
9.82119e-06
7.14796e-06
4.7533e-06
2.82816e-06
1.45895e-06
6.18889e-07
1.94505e-07
3.40847e-08
3.37151e-05
3.30991e-05
3.30504e-05
3.29699e-05
3.28848e-05
3.27983e-05
3.27358e-05
3.27104e-05
3.27132e-05
3.27166e-05
3.26836e-05
3.25793e-05
3.23816e-05
3.20853e-05
3.17015e-05
3.12518e-05
3.07609e-05
3.02505e-05
2.97345e-05
2.92184e-05
2.87019e-05
2.81834e-05
2.76648e-05
2.71538e-05
2.66639e-05
2.62109e-05
2.58099e-05
2.54719e-05
2.52027e-05
2.50029e-05
2.48688e-05
2.47938e-05
2.4769e-05
2.47827e-05
2.47742e-05
2.45927e-05
2.42699e-05
2.38351e-05
2.30951e-05
2.19513e-05
2.03014e-05
1.80849e-05
1.53339e-05
1.2205e-05
8.96943e-06
5.95613e-06
3.46386e-06
1.67549e-06
6.09106e-07
1.25962e-07
3.40077e-05
3.34693e-05
3.34617e-05
3.34251e-05
3.33834e-05
3.33412e-05
3.3316e-05
3.33175e-05
3.3341e-05
3.33672e-05
3.33682e-05
3.33176e-05
3.31987e-05
3.30089e-05
3.27587e-05
3.24661e-05
3.215e-05
3.18241e-05
3.14938e-05
3.11565e-05
3.08062e-05
3.04391e-05
3.00589e-05
2.96781e-05
2.93162e-05
2.8994e-05
2.87295e-05
2.85339e-05
2.84115e-05
2.83612e-05
2.8379e-05
2.84601e-05
2.85994e-05
2.87911e-05
2.9026e-05
2.92888e-05
2.94671e-05
2.93262e-05
2.88666e-05
2.80622e-05
2.67636e-05
2.48664e-05
2.22885e-05
1.90279e-05
1.52199e-05
1.11625e-05
7.2786e-06
4.01372e-06
1.6976e-06
4.20123e-07
3.42655e-05
3.38016e-05
3.38231e-05
3.38166e-05
3.38042e-05
3.37917e-05
3.3791e-05
3.38091e-05
3.38439e-05
3.38832e-05
3.39082e-05
3.39009e-05
3.38503e-05
3.3756e-05
3.3627e-05
3.34769e-05
3.33179e-05
3.31566e-05
3.29912e-05
3.28136e-05
3.2615e-05
3.23916e-05
3.21497e-05
3.19054e-05
3.16805e-05
3.14966e-05
3.13693e-05
3.13064e-05
3.13083e-05