/*--------------------------------*- C++ -*----------------------------------*\
  =========                 |
  \\      /  F ield         | OpenFOAM: The Open Source CFD Toolbox
   \\    /   O peration     | Website:  https://openfoam.org
    \\  /    A nd           | Version:  8
     \\/     M anipulation  |
\*---------------------------------------------------------------------------*/
FoamFile
{
    version     2.0;
    format      ascii;
    class       volScalarField;
    location    "4.2";
    object      p;
}
// * * * * * * * * * * * * * * * * * * * * * * * * * * * * * * * * * * * * * //

dimensions      [0 2 -2 0 0 0 0];

internalField   nonuniform List<scalar> 
400
(
9.67139e-07
-0.00582834
-0.0129667
-0.0184192
-0.020437
-0.0182434
-0.0117789
-0.00148869
0.0118325
0.0271444
0.0432398
0.0588186
0.0725743
0.0833042
0.0900485
0.0922627
0.0900215
0.0842395
0.0768763
0.0710627
0.00577774
-0.000221833
-0.00580795
-0.00954681
-0.0106034
-0.00843736
-0.00297472
0.00546927
0.016298
0.0287069
0.0417451
0.0543815
0.065582
0.0744056
0.080116
0.0823114
0.0810729
0.0770504
0.0712696
0.0653134
0.0133316
0.00502988
-0.000999358
-0.00442737
-0.00527736
-0.0032685
0.00159764
0.00902278
0.0184972
0.0293444
0.0407607
0.051865
0.061764
0.069632
0.0748026
0.0768737
0.0758372
0.0720813
0.0658009
0.0575308
0.0201358
0.00869209
0.00122177
-0.00267281
-0.00372655
-0.00188987
0.00272662
0.00977982
0.0187755
0.0290902
0.0399872
0.0506493
0.0602283
0.0679115
0.0729987
0.074997
0.0737613
0.0694515
0.0615982
0.0500977
0.0244983
0.00976923
0.000585695
-0.00399118
-0.00530665
-0.00351188
0.00117011
0.00832985
0.0174572
0.0279442
0.0390802
0.0500651
0.0600442
0.0681604
0.0736218
0.0757932
0.0743644
0.0692851
0.0595208
0.0445322
0.0251741
0.00714614
-0.00380608
-0.00906142
-0.0105165
-0.00850448
-0.0033614
0.00442477
0.0143086
0.0256742
0.037809
0.0498985
0.0610433
0.0702984
0.0767299
0.0795122
0.0781342
0.0723288
0.0605345
0.0418851
0.0210896
-0.000266332
-0.0129386
-0.0187135
-0.0200341
-0.0174184
-0.0113229
-0.0023243
0.00898577
0.0219715
0.0359049
0.0499396
0.0631074
0.0743405
0.0825171
0.0865647
0.085716
0.0794424
0.0656156
0.0430668
0.0111388
-0.0136223
-0.0278792
-0.0338584
-0.0346078
-0.0308619
-0.0232173
-0.0123497
0.00110024
0.0164792
0.0330479
0.0499289
0.0660786
0.0802851
0.091196
0.0974253
0.0978656
0.0916313
0.0758915
0.0491117
-0.00597137
-0.0342707
-0.0498743
-0.0555528
-0.0550944
-0.0495189
-0.0395979
-0.0261178
-0.00976167
0.00881839
0.0288964
0.0495888
0.0697928
0.0881499
0.103043
0.112696
0.115546
0.110187
0.0928296
0.0614067
-0.0318615
-0.0638805
-0.0804212
-0.0850114
-0.0824244
-0.0740826
-0.0609852
-0.044041
-0.023956
-0.00134145
0.023141
0.0486564
0.074091
0.0979677
0.118391
0.133121
0.139984
0.136813
0.118436
0.0819292
-0.0686717
-0.104608
-0.121349
-0.123594
-0.11752
-0.105131
-0.0877225
-0.0663298
-0.0416414
-0.0141601
0.0156011
0.0469487
0.0788513
0.109789
0.137619
0.159581
0.172722
0.173774
0.155516
0.113566
-0.119407
-0.159361
-0.174919
-0.172761
-0.161152
-0.142933
-0.119763
-0.0927812
-0.0625817
-0.029452
0.00636876
0.0444691
0.0840508
0.123699
0.161132
0.193082
0.215664
0.224073
0.208046
0.160628
-0.188632
-0.232246
-0.243943
-0.233952
-0.213698
-0.187158
-0.156376
-0.122505
-0.0859019
-0.0464762
-0.00401857
0.0415347
0.089838
0.139825
0.189315
0.234685
0.27107
0.29166
0.281739
0.229772
-0.283978
-0.329308
-0.331835
-0.308284
-0.274712
-0.236443
-0.195768
-0.153614
-0.109844
-0.0637489
-0.0144416
0.0388597
0.0965505
0.158273
0.22237
0.285284
0.341393
0.381571
0.38491
0.33183
-0.419322
-0.459674
-0.442354
-0.395795
-0.342132
-0.287743
-0.234619
-0.182933
-0.131613
-0.0789882
-0.0232172
0.0374721
0.10455
0.178834
0.259858
0.344967
0.428613
0.499697
0.529672
0.485388
-0.620535
-0.636747
-0.57868
-0.494196
-0.411243
-0.335661
-0.267783
-0.20598
-0.147539
-0.0893857
-0.0284288
0.0383456
0.113804
0.200469
0.299972
0.412022
0.533027
0.651772
0.732769
0.722393
-0.935926
-0.878517
-0.741744
-0.597951
-0.474395
-0.372661
-0.288871
-0.217765
-0.153956
-0.0924662
-0.0287196
0.0416934
0.123261
0.220716
0.338924
0.482152
0.651994
0.841339
1.01527
1.0975
-1.47643
-1.20663
-0.920505
-0.69139
-0.517307
-0.387546
-0.290063
-0.213339
-0.148126
-0.0872176
-0.0245798
0.0454553
0.128935
0.233069
0.367101
0.542676
0.771291
1.05932
1.40328
1.73014
-2.53965
-1.63055
-1.04444
-0.710961
-0.495752
-0.352095
-0.254532
-0.183585
-0.126171
-0.0735972
-0.0192712
0.0427847
0.11921
0.21878
0.35481
0.547982
0.826391
1.23658
1.91167
2.92419
-4.36667
-2.04464
-0.973544
-0.563182
-0.357848
-0.240148
-0.170121
-0.123785
-0.0874832
-0.0535123
-0.0166566
0.0276584
0.0846052
0.161727
0.272409
0.442097
0.718217
1.22571
2.41103
4.84853
)
;

boundaryField
{
    movingWall
    {
        type            zeroGradient;
    }
    fixedWalls
    {
        type            zeroGradient;
    }
    frontAndBack
    {
        type            empty;
    }
}


// ************************************************************************* //
