/*--------------------------------*- C++ -*----------------------------------*\
  =========                 |
  \\      /  F ield         | OpenFOAM: The Open Source CFD Toolbox
   \\    /   O peration     | Website:  https://openfoam.org
    \\  /    A nd           | Version:  8
     \\/     M anipulation  |
\*---------------------------------------------------------------------------*/
FoamFile
{
    version     2.0;
    format      ascii;
    class       volScalarField;
    location    "8.2";
    object      p;
}
// * * * * * * * * * * * * * * * * * * * * * * * * * * * * * * * * * * * * * //

dimensions      [0 2 -2 0 0 0 0];

internalField   nonuniform List<scalar> 
400
(
2.05852e-07
-0.00582964
-0.0129681
-0.0184207
-0.0204384
-0.0182448
-0.0117803
-0.00149007
0.011831
0.0271429
0.0432383
0.0588171
0.0725729
0.0833028
0.0900472
0.0922613
0.0900201
0.084238
0.0768747
0.0710611
0.00577645
-0.000223189
-0.00580936
-0.00954827
-0.0106049
-0.00843884
-0.00297614
0.00546791
0.0162967
0.0287055
0.0417436
0.0543799
0.0655805
0.0744041
0.0801145
0.0823101
0.0810715
0.077049
0.0712681
0.0653118
0.0133302
0.00502851
-0.00100073
-0.0044288
-0.00527885
-0.00327003
0.00159615
0.00902136
0.0184959
0.0293431
0.0407593
0.0518635
0.0617625
0.0696304
0.0748011
0.0768723
0.0758358
0.07208
0.0657995
0.0575293
0.0201343
0.00869069
0.00122042
-0.00267418
-0.003728
-0.00189139
0.00272507
0.00977831
0.0187741
0.0290888
0.0399858
0.0506479
0.0602269
0.0679099
0.0729972
0.0749955
0.0737598
0.0694501
0.0615969
0.0500963
0.0244968
0.00976778
0.000584311
-0.00399252
-0.00530802
-0.00351333
0.00116856
0.00832828
0.0174557
0.0279428
0.0390788
0.0500638
0.0600428
0.068159
0.0736202
0.0757916
0.0743629
0.0692837
0.0595194
0.0445308
0.0251726
0.00714463
-0.00380753
-0.00906279
-0.0105178
-0.00850584
-0.00336287
0.0044232
0.014307
0.0256727
0.0378076
0.0498971
0.061042
0.070297
0.0767285
0.0795107
0.0781327
0.0723273
0.060533
0.0418837
0.0210881
-0.000267854
-0.0129401
-0.0187149
-0.0200355
-0.0174197
-0.0113243
-0.00232578
0.0089842
0.0219699
0.0359034
0.0499382
0.063106
0.0743392
0.0825157
0.0865633
0.0857145
0.0794408
0.0656141
0.0430654
0.0111374
-0.0136238
-0.0278807
-0.0338599
-0.0346092
-0.0308632
-0.0232186
-0.0123511
0.00109876
0.0164777
0.0330463
0.0499274
0.0660772
0.0802838
0.0911946
0.0974239
0.0978641
0.0916298
0.07589
0.0491102
-0.00597271
-0.0342721
-0.0498758
-0.0555544
-0.0550959
-0.0495203
-0.0395992
-0.0261191
-0.00976303
0.00881693
0.0288948
0.0495873
0.0697913
0.0881484
0.103041
0.112695
0.115545
0.110186
0.0928281
0.0614052
-0.0318628
-0.0638818
-0.0804227
-0.085013
-0.0824259
-0.0740841
-0.0609867
-0.0440424
-0.0239573
-0.00134281
0.0231396
0.0486549
0.0740895
0.0979662
0.11839
0.13312
0.139983
0.136812
0.118435
0.0819277
-0.0686731
-0.104609
-0.12135
-0.123596
-0.117521
-0.105132
-0.0877241
-0.0663313
-0.0416428
-0.0141614
0.0155997
0.0469473
0.0788498
0.109787
0.137618
0.15958
0.172721
0.173772
0.155515
0.113565
-0.119408
-0.159363
-0.174921
-0.172763
-0.161154
-0.142935
-0.119765
-0.0927828
-0.0625831
-0.0294533
0.00636743
0.0444678
0.0840493
0.123697
0.16113
0.19308
0.215662
0.224071
0.208045
0.160627
-0.188634
-0.232248
-0.243944
-0.233953
-0.2137
-0.18716
-0.156378
-0.122507
-0.0859035
-0.0464777
-0.00401997
0.0415333
0.0898366
0.139824
0.189313
0.234684
0.271069
0.291659
0.281737
0.22977
-0.28398
-0.32931
-0.331837
-0.308285
-0.274714
-0.236445
-0.195769
-0.153615
-0.109845
-0.0637504
-0.0144431
0.0388582
0.0965491
0.158271
0.222369
0.285283
0.341392
0.38157
0.384909
0.331829
-0.419324
-0.459676
-0.442355
-0.395797
-0.342134
-0.287744
-0.23462
-0.182934
-0.131614
-0.0789897
-0.0232188
0.0374706
0.104548
0.178833
0.259857
0.344965
0.428611
0.499695
0.52967
0.485387
-0.620536
-0.636748
-0.578681
-0.494197
-0.411245
-0.335662
-0.267784
-0.205982
-0.147541
-0.0893871
-0.0284302
0.0383441
0.113803
0.200467
0.299971
0.412021
0.533025
0.651771
0.732767
0.722391
-0.935928
-0.878519
-0.741745
-0.597952
-0.474397
-0.372663
-0.288872
-0.217766
-0.153957
-0.0924676
-0.028721
0.0416919
0.12326
0.220714
0.338922
0.482151
0.651993
0.841338
1.01527
1.0975
-1.47643
-1.20663
-0.920507
-0.691391
-0.517308
-0.387547
-0.290064
-0.213341
-0.148127
-0.087219
-0.0245812
0.0454539
0.128934
0.233067
0.367099
0.542674
0.771289
1.05931
1.40328
1.73014
-2.53965
-1.63055
-1.04444
-0.710962
-0.495754
-0.352096
-0.254534
-0.183586
-0.126173
-0.0735986
-0.0192726
0.0427833
0.119209
0.218779
0.354808
0.54798
0.826389
1.23658
1.91167
2.92419
-4.36667
-2.04464
-0.973545
-0.563184
-0.357849
-0.24015
-0.170123
-0.123786
-0.0874847
-0.0535138
-0.0166581
0.027657
0.0846038
0.161726
0.272408
0.442095
0.718215
1.2257
2.41103
4.84853
)
;

boundaryField
{
    movingWall
    {
        type            zeroGradient;
    }
    fixedWalls
    {
        type            zeroGradient;
    }
    frontAndBack
    {
        type            empty;
    }
}


// ************************************************************************* //
