/*--------------------------------*- C++ -*----------------------------------*\
  =========                 |
  \\      /  F ield         | OpenFOAM: The Open Source CFD Toolbox
   \\    /   O peration     | Website:  https://openfoam.org
    \\  /    A nd           | Version:  8
     \\/     M anipulation  |
\*---------------------------------------------------------------------------*/
FoamFile
{
    version     2.0;
    format      ascii;
    class       volScalarField;
    location    "8.2";
    object      T;
}
// * * * * * * * * * * * * * * * * * * * * * * * * * * * * * * * * * * * * * //

dimensions      [0 0 0 1 0 0 0];

internalField   nonuniform List<scalar> 
400
(
293.789
295.315
296.774
298.227
299.709
301.183
302.57
303.788
304.775
305.482
305.869
305.904
305.555
304.803
303.647
302.112
300.264
298.212
296.091
294.014
295.422
300.098
304.599
309.117
313.732
318.276
322.454
326.007
328.768
330.633
331.527
331.389
330.167
327.824
324.357
319.829
314.406
308.379
302.134
295.996
297.155
305.139
312.834
320.565
328.396
335.947
342.681
348.219
352.373
355.062
356.231
355.827
353.778
350.005
344.457
337.163
328.332
318.42
308.091
297.934
298.976
310.397
321.412
332.426
343.383
353.606
362.362
369.279
374.282
377.408
378.691
378.11
375.569
370.895
363.884
354.397
342.529
328.815
314.267
299.916
300.862
315.796
330.185
344.431
358.208
370.499
380.487
387.987
393.184
396.326
397.592
397.023
394.491
389.693
382.181
371.465
357.274
339.982
320.961
302.031
302.792
321.268
339.008
356.285
372.357
385.873
396.118
403.302
407.997
410.727
411.832
411.421
409.353
405.205
398.264
387.577
372.218
351.969
328.322
304.321
304.755
326.764
347.747
367.703
385.342
399.066
408.53
414.56
418.187
420.186
421.015
420.83
419.494
416.531
411.044
401.645
386.58
364.51
336.396
306.788
306.747
332.262
356.312
378.437
396.744
409.611
417.396
421.717
424.013
425.184
425.711
425.758
425.211
423.624
420.066
412.886
399.557
377.209
345.243
309.428
308.76
337.696
364.526
388.224
406.263
417.325
422.872
425.345
426.38
426.827
427.1
427.335
427.459
427.129
425.534
421.013
410.531
389.601
354.954
312.254
310.815
343.137
372.483
396.983
413.761
422.336
425.525
426.38
426.438
426.365
426.456
426.801
427.378
427.988
428.055
426.149
419.126
401.166
365.567
315.34
312.9
348.441
379.755
404.386
419.212
425.037
426.134
425.816
425.25
424.877
424.853
425.228
426.019
427.174
428.406
428.701
425.234
411.396
376.983
318.918
315.062
353.758
386.889
410.785
422.929
425.985
425.5
424.503
423.635
423.147
423.069
423.42
424.228
425.553
427.39
429.237
428.983
419.889
388.921
323.51
317.367
359.113
392.992
415.552
424.872
425.688
424.312
423.054
422.114
421.635
421.55
421.864
422.586
423.81
425.748
428.391
430.679
426.398
400.937
329.993
319.848
364.257
399.244
419.705
425.971
424.975
423.139
421.821
420.924
420.498
420.431
420.734
421.381
422.393
424.094
426.803
430.751
430.849
412.482
339.433
322.578
370.277
404.193
422.037
425.671
423.751
422.023
420.88
420.111
419.734
419.684
419.987
420.644
421.482
422.853
425.064
429.712
433.323
422.996
352.631
326.531
375.277
409.481
424.348
425.764
423.43
421.806
420.676
419.906
419.499
419.433
419.667
420.364
421.07
422.23
423.659
428.142
434.031
432.002
369.551
328.589
382.728
413.068
424.473
424.674
422.664
421.385
420.616
420.164
419.905
420.043
420.165
420.838
421.22
422.28
422.929
426.718
433.335
439.166
388.947
336.686
386.575
415.889
425.314
426.111
425.104
424.181
423.322
422.981
422.379
422.46
422.012
422.472
422.122
423.089
423.081
426.368
431.951
444.427
408.671
332.476
392.331
412.807
419.919
422.444
422.598
423.029
422.375
422.821
422.101
422.865
422.171
423.404
422.783
424.829
424.61
429.034
431.893
448.623
426.91
338.596
368.148
383.949
393.125
400.864
405.79
411.384
414.626
419.478
421.662
426.312
427.597
432.429
432.808
438.315
437.688
444.971
443.11
456.56
444.089
)
;

boundaryField
{
    movingWall
    {
        type            fixedValue;
        value           uniform 493;
    }
    fixedWalls
    {
        type            fixedValue;
        value           uniform 293;
    }
    frontAndBack
    {
        type            empty;
    }
}


// ************************************************************************* //
