/*--------------------------------*- C++ -*----------------------------------*\
  =========                 |
  \\      /  F ield         | OpenFOAM: The Open Source CFD Toolbox
   \\    /   O peration     | Website:  https://openfoam.org
    \\  /    A nd           | Version:  8
     \\/     M anipulation  |
\*---------------------------------------------------------------------------*/
FoamFile
{
    version     2.0;
    format      ascii;
    class       volScalarField;
    location    "2";
    object      T;
}
// * * * * * * * * * * * * * * * * * * * * * * * * * * * * * * * * * * * * * //

dimensions      [0 0 0 1 0 0 0];

internalField   nonuniform List<scalar> 
400
(
293.315
293.991
294.819
295.856
297.065
298.336
299.551
300.629
301.52
302.189
302.604
302.734
302.552
302.036
301.18
300.006
298.572
296.976
295.342
293.765
294.002
296.16
298.826
302.174
306.035
310.004
313.693
316.866
319.401
321.222
322.266
322.47
321.777
320.139
317.54
314.024
309.741
304.964
300.054
295.3
294.821
298.729
303.552
309.54
316.27
322.954
328.953
333.956
337.846
340.565
342.064
342.282
341.132
338.51
334.331
328.592
321.467
313.391
305.016
296.902
295.791
301.73
309.016
317.879
327.485
336.602
344.424
350.693
355.404
358.619
360.384
360.679
359.385
356.291
351.133
343.701
334.03
322.618
310.478
298.644
296.897
305.102
315.06
326.85
339.049
349.961
358.75
365.379
370.115
373.266
375.061
375.556
374.606
371.849
366.738
358.664
347.233
332.746
316.569
300.564
298.113
308.753
321.472
336.019
350.213
361.933
370.523
376.397
380.264
382.777
384.37
385.187
385.064
383.495
379.625
372.31
360.424
343.602
323.308
302.663
299.414
312.584
328.017
344.938
360.246
371.536
378.654
382.727
385.017
386.498
387.748
388.967
389.989
390.231
388.607
383.464
372.748
354.866
330.702
304.93
300.784
316.553
334.555
353.218
368.524
378.08
382.627
384.213
384.597
384.921
385.796
387.435
389.692
391.999
393.2
391.308
383.374
366.133
338.811
307.36
302.174
320.429
340.691
360.437
374.608
381.275
382.559
381.458
379.986
379.248
379.785
381.791
385.166
389.446
393.576
395.497
391.631
376.91
347.718
309.967
303.664
324.587
346.779
366.519
378.283
381.224
379.074
375.513
372.479
370.879
371.133
373.4
377.642
383.561
390.34
396.116
397.083
386.629
357.442
312.824
305.032
328.021
351.669
370.843
379.465
378.381
373.082
367.554
363.352
361.124
361.148
363.547
368.347
375.435
384.32
393.56
399.574
394.733
367.852
316.148
306.729
332.531
357.006
374.181
378.618
373.437
365.591
358.703
353.737
351.109
350.953
353.364
358.415
366.157
376.455
388.442
399.203
400.769
378.635
320.44
307.939
335.025
360.077
375.105
375.494
367.04
357.593
349.958
344.602
341.777
341.49
343.826
348.87
356.78
367.743
381.526
396.294
404.449
389.311
326.534
310.293
340.295
364.59
375.934
371.792
360.569
350.167
342.225
336.803
333.949
333.58
335.779
340.638
348.315
359.233
373.715
391.364
405.679
399.289
335.431
310.764
341.595
365.547
373.682
366.246
353.944
343.811
336.3
331.228
328.52
328.109
330.102
334.64
341.77
352.044
366.08
385.15
404.564
407.972
347.855
315.774
348.015
369.399
373.149
362.896
350.391
340.898
333.968
329.337
326.839
326.402
328.057
332.081
338.315
347.451
359.95
378.708
401.454
414.867
363.693
312.791
348.142
367.842
368.919
358.706
348.243
340.709
335.476
332.127
330.377
330.309
331.617
334.882
339.658
347.114
357.104
373.712
397.135
419.716
381.674
324.415
355.501
371.699
371.308
363.789
356.518
351.135
347.238
344.912
343.348
343.23
343.577
345.645
348.244
353.479
360.194
373.172
393.52
422.86
399.756
312.417
351.312
364.663
367.565
366.908
364.904
363.768
362.269
362.134
361.429
362.336
362.437
364.593
365.826
370.08
373.82
383.463
395.994
426.542
416.519
329.883
349.972
362.034
369.519
376.218
380.74
385.991
389.3
394.071
396.579
401.282
403.121
408.128
409.375
415.277
416.132
424.396
425.528
441.197
433.733
)
;

boundaryField
{
    movingWall
    {
        type            fixedValue;
        value           uniform 493;
    }
    fixedWalls
    {
        type            fixedValue;
        value           uniform 293;
    }
    frontAndBack
    {
        type            empty;
    }
}


// ************************************************************************* //
