/*--------------------------------*- C++ -*----------------------------------*\
  =========                 |
  \\      /  F ield         | OpenFOAM: The Open Source CFD Toolbox
   \\    /   O peration     | Website:  https://openfoam.org
    \\  /    A nd           | Version:  8
     \\/     M anipulation  |
\*---------------------------------------------------------------------------*/
FoamFile
{
    version     2.0;
    format      ascii;
    class       volScalarField;
    location    "9.9";
    object      p;
}
// * * * * * * * * * * * * * * * * * * * * * * * * * * * * * * * * * * * * * //

dimensions      [0 2 -2 0 0 0 0];

internalField   nonuniform List<scalar> 
400
(
1.06398e-07
-0.00582981
-0.0129683
-0.0184209
-0.0204386
-0.018245
-0.0117805
-0.00149029
0.0118308
0.0271427
0.0432381
0.0588169
0.0725727
0.0833026
0.090047
0.0922611
0.0900199
0.0842378
0.0768745
0.0710609
0.00577629
-0.000223378
-0.00580955
-0.00954846
-0.0106051
-0.008439
-0.00297631
0.00546771
0.0162964
0.0287053
0.0417434
0.0543797
0.0655803
0.074404
0.0801144
0.0823099
0.0810713
0.0770488
0.0712679
0.0653116
0.01333
0.00502832
-0.00100093
-0.004429
-0.00527904
-0.00327019
0.001596
0.0090212
0.0184957
0.0293429
0.0407591
0.0518633
0.0617623
0.0696303
0.074801
0.0768721
0.0758356
0.0720798
0.0657993
0.0575291
0.0201341
0.00869052
0.00122022
-0.0026744
-0.00372821
-0.00189158
0.00272491
0.00977817
0.018774
0.0290887
0.0399856
0.0506477
0.0602266
0.0679097
0.072997
0.0749954
0.0737597
0.0694499
0.0615967
0.0500961
0.0244966
0.00976761
0.000584134
-0.00399272
-0.00530824
-0.00351355
0.00116837
0.00832813
0.0174555
0.0279427
0.0390786
0.0500636
0.0600426
0.0681587
0.07362
0.0757914
0.0743627
0.0692835
0.0595192
0.0445306
0.0251724
0.00714447
-0.00380768
-0.00906297
-0.0105181
-0.00850607
-0.00336309
0.00442302
0.0143069
0.0256726
0.0378074
0.049897
0.0610418
0.0702968
0.0767283
0.0795105
0.0781325
0.0723272
0.0605328
0.0418835
0.0210879
-0.000268033
-0.0129402
-0.0187151
-0.0200357
-0.0174199
-0.0113245
-0.002326
0.00898401
0.0219697
0.0359032
0.049938
0.0631058
0.074339
0.0825155
0.0865631
0.0857143
0.0794407
0.0656139
0.0430652
0.0111372
-0.013624
-0.0278809
-0.0338601
-0.0346094
-0.0308634
-0.0232189
-0.0123513
0.00109854
0.0164775
0.0330461
0.0499272
0.066077
0.0802836
0.0911944
0.0974237
0.0978639
0.0916296
0.0758899
0.04911
-0.00597292
-0.0342723
-0.049876
-0.0555545
-0.055096
-0.0495205
-0.0395994
-0.0261193
-0.00976327
0.00881671
0.0288946
0.0495871
0.0697912
0.0881483
0.103041
0.112695
0.115544
0.110186
0.0928279
0.061405
-0.031863
-0.0638821
-0.0804229
-0.0850132
-0.0824261
-0.0740843
-0.0609868
-0.0440426
-0.0239575
-0.00134304
0.0231393
0.0486547
0.0740893
0.097966
0.11839
0.13312
0.139982
0.136812
0.118434
0.0819275
-0.0686733
-0.104609
-0.12135
-0.123596
-0.117522
-0.105133
-0.0877242
-0.0663314
-0.0416429
-0.0141616
0.0155995
0.046947
0.0788496
0.109787
0.137618
0.15958
0.172721
0.173772
0.155514
0.113565
-0.119408
-0.159363
-0.174921
-0.172763
-0.161154
-0.142935
-0.119765
-0.0927829
-0.0625833
-0.0294535
0.00636722
0.0444675
0.0840491
0.123697
0.16113
0.19308
0.215662
0.224071
0.208045
0.160627
-0.188634
-0.232248
-0.243944
-0.233953
-0.2137
-0.18716
-0.156378
-0.122507
-0.0859036
-0.0464779
-0.00402014
0.0415331
0.0898364
0.139824
0.189313
0.234683
0.271069
0.291659
0.281737
0.22977
-0.28398
-0.32931
-0.331837
-0.308285
-0.274714
-0.236445
-0.19577
-0.153615
-0.109845
-0.0637506
-0.0144433
0.0388581
0.0965489
0.158271
0.222369
0.285283
0.341392
0.38157
0.384909
0.331829
-0.419324
-0.459676
-0.442355
-0.395797
-0.342134
-0.287744
-0.234621
-0.182935
-0.131614
-0.0789899
-0.0232189
0.0374704
0.104548
0.178833
0.259856
0.344965
0.428611
0.499695
0.52967
0.485387
-0.620536
-0.636748
-0.578682
-0.494197
-0.411245
-0.335662
-0.267785
-0.205982
-0.147541
-0.0893873
-0.0284304
0.0383439
0.113802
0.200467
0.299971
0.412021
0.533025
0.651771
0.732767
0.722391
-0.935928
-0.878519
-0.741746
-0.597952
-0.474397
-0.372663
-0.288872
-0.217766
-0.153957
-0.0924678
-0.0287213
0.0416917
0.123259
0.220714
0.338922
0.482151
0.651993
0.841338
1.01527
1.0975
-1.47643
-1.20663
-0.920507
-0.691391
-0.517308
-0.387547
-0.290065
-0.213341
-0.148127
-0.0872192
-0.0245814
0.0454537
0.128934
0.233067
0.367099
0.542674
0.771289
1.05931
1.40328
1.73014
-2.53965
-1.63055
-1.04444
-0.710962
-0.495754
-0.352097
-0.254534
-0.183587
-0.126173
-0.0735988
-0.0192728
0.0427831
0.119208
0.218779
0.354808
0.54798
0.826389
1.23658
1.91167
2.92419
-4.36667
-2.04464
-0.973546
-0.563184
-0.35785
-0.24015
-0.170123
-0.123786
-0.0874849
-0.053514
-0.0166582
0.0276568
0.0846036
0.161726
0.272407
0.442095
0.718215
1.2257
2.41103
4.84853
)
;

boundaryField
{
    movingWall
    {
        type            zeroGradient;
    }
    fixedWalls
    {
        type            zeroGradient;
    }
    frontAndBack
    {
        type            empty;
    }
}


// ************************************************************************* //
