/*--------------------------------*- C++ -*----------------------------------*\
  =========                 |
  \\      /  F ield         | OpenFOAM: The Open Source CFD Toolbox
   \\    /   O peration     | Website:  https://openfoam.org
    \\  /    A nd           | Version:  8
     \\/     M anipulation  |
\*---------------------------------------------------------------------------*/
FoamFile
{
    version     2.0;
    format      ascii;
    class       volScalarField;
    location    "1.8";
    object      T;
}
// * * * * * * * * * * * * * * * * * * * * * * * * * * * * * * * * * * * * * //

dimensions      [0 0 0 1 0 0 0];

internalField   nonuniform List<scalar> 
400
(
293.226
293.733
294.416
295.345
296.492
297.74
298.953
300.036
300.933
301.61
302.039
302.188
302.032
301.551
300.741
299.622
298.253
296.736
295.192
293.714
293.732
295.385
297.629
300.685
304.404
308.345
312.053
315.251
317.812
319.666
320.756
321.023
320.412
318.875
316.397
313.027
308.914
304.336
299.659
295.165
294.37
297.451
301.627
307.226
313.829
320.545
326.611
331.672
335.616
338.401
339.984
340.309
339.288
336.819
332.817
327.277
320.379
312.563
304.489
296.72
295.167
299.993
306.474
314.947
324.521
333.759
341.691
348.036
352.82
356.119
357.991
358.418
357.285
354.381
349.439
342.249
332.841
321.719
309.905
298.445
296.116
302.967
312.034
323.505
335.794
346.889
355.784
362.468
367.255
370.476
372.37
373.003
372.232
369.697
364.846
357.062
345.945
331.789
315.969
300.357
297.194
306.286
318.084
332.422
346.806
358.704
367.334
373.202
377.073
379.623
381.298
382.252
382.324
381.011
377.451
370.487
358.979
342.549
322.66
302.444
298.377
309.845
324.368
341.191
356.734
368.126
375.185
379.184
381.433
382.919
384.232
385.586
386.821
387.354
386.093
381.371
371.107
353.687
329.988
304.692
299.646
313.598
330.725
349.375
364.894
374.432
378.821
380.281
380.584
380.88
381.798
383.566
386.046
388.678
390.297
388.901
381.506
364.811
338.021
307.101
300.944
317.277
336.703
356.504
370.821
377.335
378.387
377.122
375.526
374.725
375.28
377.404
381.008
385.638
390.237
392.731
389.5
375.423
346.843
309.686
302.362
321.317
342.713
362.506
374.296
376.96
374.533
370.774
367.573
365.88
366.13
368.5
372.967
379.247
386.532
392.95
394.653
384.954
356.469
312.517
303.637
324.541
347.441
366.691
375.233
373.784
368.188
362.432
358.032
355.695
355.697
358.179
363.185
370.624
380.03
389.965
396.809
392.844
366.768
315.814
305.296
329.053
352.771
369.938
374.146
368.526
360.378
353.246
348.078
345.339
345.147
347.617
352.836
360.893
371.694
384.401
396.073
398.639
377.425
320.071
306.367
331.213
355.611
370.637
370.722
361.832
352.12
344.251
338.716
335.794
335.464
337.826
342.986
351.146
362.556
377.043
392.774
402.051
387.956
326.12
308.748
336.667
360.185
371.396
366.831
355.169
344.531
336.386
330.833
327.908
327.494
329.685
334.595
342.433
353.702
368.823
387.444
402.986
397.769
334.952
308.921
337.392
360.799
368.838
360.986
348.336
338.067
330.442
325.316
322.573
322.119
324.069
328.591
335.786
346.288
360.849
380.841
401.554
406.266
347.284
314.144
344.228
364.822
368.332
357.61
344.814
335.246
328.257
323.603
321.077
320.589
322.177
326.139
332.365
341.611
354.493
374.059
398.119
412.95
362.996
310.492
343.451
362.745
363.712
353.151
342.52
334.987
329.764
326.426
324.672
324.576
325.843
329.056
333.815
341.323
351.579
368.829
393.503
417.577
380.815
322.683
351.534
367.063
366.45
358.573
351.061
345.564
341.61
339.245
337.661
337.519
337.859
339.915
342.551
347.861
354.812
368.271
389.706
420.52
398.715
309.66
345.976
359.091
362.036
361.356
359.341
358.198
356.726
356.609
355.957
356.9
357.08
359.295
360.655
365.033
369.039
379.039
392.374
424.147
415.314
328.661
347.482
359.16
366.533
373.188
377.727
382.991
386.354
391.153
393.734
398.47
400.397
405.439
406.798
412.745
413.762
422.114
423.551
439.416
432.518
)
;

boundaryField
{
    movingWall
    {
        type            fixedValue;
        value           uniform 493;
    }
    fixedWalls
    {
        type            fixedValue;
        value           uniform 293;
    }
    frontAndBack
    {
        type            empty;
    }
}


// ************************************************************************* //
