/*--------------------------------*- C++ -*----------------------------------*\
  =========                 |
  \\      /  F ield         | OpenFOAM: The Open Source CFD Toolbox
   \\    /   O peration     | Website:  https://openfoam.org
    \\  /    A nd           | Version:  8
     \\/     M anipulation  |
\*---------------------------------------------------------------------------*/
FoamFile
{
    version     2.0;
    format      ascii;
    class       volScalarField;
    location    "6.4";
    object      T;
}
// * * * * * * * * * * * * * * * * * * * * * * * * * * * * * * * * * * * * * //

dimensions      [0 0 0 1 0 0 0];

internalField   nonuniform List<scalar> 
400
(
293.766
295.247
296.669
298.09
299.542
300.99
302.355
303.555
304.529
305.23
305.619
305.66
305.325
304.593
303.462
301.956
300.141
298.123
296.039
293.997
295.351
299.895
304.282
308.702
313.229
317.695
321.806
325.31
328.039
329.891
330.793
330.681
329.503
327.22
323.827
319.384
314.055
308.128
301.984
295.947
297.035
304.797
312.303
319.872
327.56
334.983
341.614
347.075
351.184
353.859
355.046
354.691
352.718
349.048
343.622
336.467
327.785
318.028
307.857
297.856
298.806
309.917
320.668
331.46
342.218
352.269
360.886
367.701
372.645
375.755
377.066
376.558
374.129
369.602
362.766
353.472
341.807
328.299
313.959
299.814
300.642
315.177
329.231
343.192
356.718
368.789
378.598
385.964
391.077
394.193
395.493
395.018
392.638
388.04
380.764
370.306
356.379
339.349
320.585
301.908
302.522
320.512
337.844
354.774
370.536
383.776
393.786
400.786
405.359
408.041
409.18
408.888
407.016
403.131
396.502
386.152
371.134
351.213
327.877
304.176
304.434
325.87
346.372
365.914
383.175
396.55
405.703
411.479
414.93
416.85
417.71
417.669
416.582
413.958
408.875
399.912
385.283
363.621
335.88
306.622
306.374
331.23
354.723
376.357
394.202
406.625
414.002
417.981
420.036
421.091
421.645
421.863
421.624
420.463
417.417
410.792
398.015
376.173
344.652
309.24
308.332
336.516
362.709
385.833
403.308
413.809
418.83
420.86
421.58
421.869
422.162
422.596
423.093
423.285
422.325
418.497
408.704
388.4
354.282
312.044
310.333
341.821
370.439
394.259
410.347
418.223
420.753
421.055
420.716
420.44
420.539
421.113
422.129
423.364
424.199
423.141
416.967
399.775
364.807
315.107
312.351
346.94
377.443
401.289
415.289
420.26
420.558
419.57
418.524
417.897
417.87
418.499
419.794
421.678
423.817
425.127
422.689
409.786
376.123
318.66
314.462
352.142
384.332
407.299
418.45
420.488
419.061
417.282
415.852
415.061
414.964
415.59
416.959
419.109
421.989
425.023
425.991
418.023
387.946
323.223
316.666
357.224
390.1
411.61
419.782
419.428
416.983
414.848
413.276
412.451
412.33
412.931
414.257
416.383
419.481
423.473
427.18
424.234
399.828
329.669
319.117
362.313
396.086
415.321
420.268
417.962
414.959
412.695
411.123
410.324
410.208
410.794
412.061
414.018
416.956
421.143
426.691
428.341
411.215
339.057
321.646
367.894
400.607
417.12
419.328
416.032
413.112
411.024
409.587
408.841
408.73
409.296
410.547
412.314
414.931
418.681
425.061
430.427
421.543
352.181
325.662
372.928
405.624
419.013
418.935
415.238
412.486
410.489
409.118
408.38
408.254
408.71
409.922
411.458
413.767
416.681
422.925
430.717
430.331
368.998
327.274
379.702
408.689
418.671
417.507
414.34
412.152
410.712
409.81
409.31
409.406
409.698
410.759
411.785
413.765
415.681
421.082
429.622
437.254
388.258
335.643
383.756
411.47
419.59
419.332
417.512
415.988
414.707
414.086
413.341
413.392
413.052
413.74
413.796
415.35
416.222
420.721
427.993
442.293
407.822
330.739
388.65
408.201
414.699
416.777
416.623
416.828
416.038
416.389
415.645
416.411
415.796
417.133
416.724
419.034
419.275
424.305
428.225
446.438
425.916
337.853
366.571
381.993
390.974
398.582
403.442
408.982
412.211
417.039
419.239
423.882
425.21
430.052
430.509
436.053
435.571
442.959
441.402
455.09
443.104
)
;

boundaryField
{
    movingWall
    {
        type            fixedValue;
        value           uniform 493;
    }
    fixedWalls
    {
        type            fixedValue;
        value           uniform 293;
    }
    frontAndBack
    {
        type            empty;
    }
}


// ************************************************************************* //
