/*--------------------------------*- C++ -*----------------------------------*\
  =========                 |
  \\      /  F ield         | OpenFOAM: The Open Source CFD Toolbox
   \\    /   O peration     | Website:  https://openfoam.org
    \\  /    A nd           | Version:  8
     \\/     M anipulation  |
\*---------------------------------------------------------------------------*/
FoamFile
{
    version     2.0;
    format      ascii;
    class       volScalarField;
    location    "2.3";
    object      p;
}
// * * * * * * * * * * * * * * * * * * * * * * * * * * * * * * * * * * * * * //

dimensions      [0 2 -2 0 0 0 0];

internalField   nonuniform List<scalar> 
400
(
2.05635e-06
-0.0058265
-0.0129647
-0.0184172
-0.0204349
-0.0182413
-0.0117768
-0.0014866
0.0118345
0.0271464
0.0432418
0.0588207
0.0725764
0.0833063
0.0900507
0.0922648
0.0900236
0.0842415
0.0768782
0.0710647
0.0057796
-0.000219855
-0.00580595
-0.00954481
-0.0106014
-0.00843531
-0.00297262
0.0054714
0.0163001
0.028709
0.0417471
0.0543834
0.0655841
0.0744077
0.0801181
0.0823135
0.081075
0.0770525
0.0712717
0.0653153
0.0133336
0.00503192
-0.00099732
-0.00442536
-0.00527537
-0.0032665
0.00159969
0.00902489
0.0184993
0.0293466
0.0407627
0.051867
0.061766
0.069634
0.0748047
0.0768758
0.0758393
0.0720835
0.065803
0.0575329
0.0201378
0.00869416
0.00122386
-0.00267075
-0.00372454
-0.00188789
0.00272861
0.00978187
0.0187777
0.0290923
0.0399893
0.0506514
0.0602303
0.0679134
0.0730007
0.0749991
0.0737634
0.0694536
0.0616004
0.0500998
0.0245003
0.00977129
0.000587796
-0.00398907
-0.00530458
-0.00350987
0.00117207
0.00833184
0.0174593
0.0279464
0.0390823
0.0500673
0.0600462
0.0681624
0.0736238
0.0757952
0.0743664
0.0692872
0.0595229
0.0445343
0.0251761
0.00714816
-0.003804
-0.00905929
-0.0105144
-0.0085024
-0.0033594
0.00442672
0.0143106
0.0256763
0.0378111
0.0499006
0.0610454
0.0703005
0.076732
0.0795142
0.0781362
0.0723309
0.0605365
0.0418872
0.0210916
-0.00026433
-0.0129365
-0.0187114
-0.020032
-0.0174162
-0.0113208
-0.00232231
0.00898772
0.0219735
0.0359069
0.0499417
0.0631095
0.0743426
0.0825192
0.0865668
0.085718
0.0794444
0.0656176
0.0430689
0.0111408
-0.0136203
-0.0278772
-0.0338564
-0.0346057
-0.0308597
-0.0232152
-0.0123477
0.00110223
0.0164812
0.0330498
0.0499309
0.0660807
0.0802873
0.0911981
0.0974274
0.0978676
0.0916333
0.0758936
0.0491137
-0.00596922
-0.0342686
-0.0498723
-0.0555508
-0.0550923
-0.0495168
-0.0395957
-0.0261157
-0.00975959
0.0088204
0.0288983
0.0495908
0.0697949
0.088152
0.103045
0.112699
0.115548
0.110189
0.0928316
0.0614087
-0.0318593
-0.0638784
-0.0804192
-0.0850095
-0.0824224
-0.0740806
-0.0609831
-0.0440389
-0.0239539
-0.00133936
0.023143
0.0486584
0.074093
0.0979697
0.118393
0.133123
0.139986
0.136816
0.118438
0.0819312
-0.0686696
-0.104606
-0.121347
-0.123592
-0.117518
-0.105129
-0.0877205
-0.0663277
-0.0416393
-0.0141579
0.0156032
0.0469507
0.0788533
0.109791
0.137621
0.159583
0.172725
0.173776
0.155518
0.113568
-0.119405
-0.159359
-0.174917
-0.172759
-0.16115
-0.142931
-0.119761
-0.0927792
-0.0625796
-0.0294498
0.0063709
0.0444712
0.0840528
0.123701
0.161134
0.193084
0.215666
0.224075
0.208048
0.16063
-0.188631
-0.232244
-0.243941
-0.23395
-0.213696
-0.187156
-0.156374
-0.122503
-0.0858999
-0.0464742
-0.00401645
0.0415368
0.0898401
0.139827
0.189317
0.234687
0.271072
0.291662
0.281741
0.229774
-0.283976
-0.329306
-0.331833
-0.308282
-0.27471
-0.236441
-0.195766
-0.153612
-0.109842
-0.0637469
-0.0144396
0.0388618
0.0965526
0.158275
0.222372
0.285286
0.341395
0.381573
0.384912
0.331832
-0.41932
-0.459672
-0.442352
-0.395793
-0.34213
-0.287741
-0.234617
-0.182931
-0.131611
-0.0789862
-0.0232152
0.0374741
0.104552
0.178837
0.25986
0.344969
0.428615
0.499699
0.529674
0.48539
-0.620533
-0.636745
-0.578678
-0.494194
-0.411241
-0.335659
-0.267781
-0.205978
-0.147537
-0.0893836
-0.0284267
0.0383476
0.113806
0.200471
0.299974
0.412024
0.533029
0.651774
0.732771
0.722395
-0.935924
-0.878515
-0.741742
-0.597949
-0.474393
-0.372659
-0.288869
-0.217763
-0.153953
-0.0924641
-0.0287176
0.0416954
0.123263
0.220718
0.338926
0.482154
0.651996
0.841341
1.01527
1.0975
-1.47642
-1.20663
-0.920503
-0.691388
-0.517305
-0.387544
-0.290061
-0.213337
-0.148124
-0.0872155
-0.0245777
0.0454574
0.128937
0.233071
0.367103
0.542678
0.771293
1.05932
1.40329
1.73014
-2.53965
-1.63055
-1.04444
-0.710958
-0.49575
-0.352093
-0.25453
-0.183583
-0.126169
-0.0735951
-0.0192691
0.0427868
0.119212
0.218782
0.354812
0.547984
0.826393
1.23658
1.91168
2.92419
-4.36666
-2.04463
-0.973542
-0.56318
-0.357846
-0.240146
-0.170119
-0.123783
-0.0874812
-0.0535103
-0.0166546
0.0276605
0.0846073
0.161729
0.272411
0.442099
0.718219
1.22571
2.41103
4.84853
)
;

boundaryField
{
    movingWall
    {
        type            zeroGradient;
    }
    fixedWalls
    {
        type            zeroGradient;
    }
    frontAndBack
    {
        type            empty;
    }
}


// ************************************************************************* //
