/*--------------------------------*- C++ -*----------------------------------*\
  =========                 |
  \\      /  F ield         | OpenFOAM: The Open Source CFD Toolbox
   \\    /   O peration     | Website:  https://openfoam.org
    \\  /    A nd           | Version:  8
     \\/     M anipulation  |
\*---------------------------------------------------------------------------*/
FoamFile
{
    version     2.0;
    format      ascii;
    class       volScalarField;
    location    "4.1";
    object      p;
}
// * * * * * * * * * * * * * * * * * * * * * * * * * * * * * * * * * * * * * //

dimensions      [0 2 -2 0 0 0 0];

internalField   nonuniform List<scalar> 
400
(
1.00757e-06
-0.00582827
-0.0129666
-0.0184192
-0.0204369
-0.0182433
-0.0117788
-0.00148853
0.0118326
0.0271445
0.0432398
0.0588186
0.0725743
0.0833043
0.0900487
0.0922628
0.0900216
0.0842396
0.0768763
0.0710627
0.0057778
-0.000221735
-0.00580785
-0.00954675
-0.0106034
-0.00843735
-0.00297467
0.00546939
0.0162982
0.0287071
0.0417452
0.0543815
0.065582
0.0744056
0.080116
0.0823115
0.081073
0.0770505
0.0712697
0.0653134
0.0133316
0.00502998
-0.000999232
-0.00442726
-0.0052773
-0.00326851
0.00159763
0.00902282
0.0184973
0.0293446
0.0407608
0.0518651
0.0617641
0.069632
0.0748026
0.0768737
0.0758373
0.0720815
0.065801
0.0575309
0.0201358
0.00869216
0.0012219
-0.00267266
-0.00372644
-0.00188982
0.00272659
0.00977979
0.0187756
0.0290903
0.0399873
0.0506495
0.0602284
0.0679115
0.0729987
0.074997
0.0737613
0.0694516
0.0615984
0.0500978
0.0244983
0.00976926
0.000585772
-0.00399103
-0.00530648
-0.00351175
0.00117014
0.00832981
0.0174572
0.0279443
0.0390803
0.0500653
0.0600443
0.0681605
0.0736218
0.0757931
0.0743644
0.0692851
0.0595209
0.0445323
0.0251742
0.00714614
-0.00380606
-0.00906134
-0.0105164
-0.00850429
-0.00336128
0.00442479
0.0143086
0.0256742
0.037809
0.0498986
0.0610435
0.0702986
0.0767301
0.0795123
0.0781342
0.0723288
0.0605345
0.0418852
0.0210897
-0.000266304
-0.0129386
-0.0187135
-0.020034
-0.0174182
-0.0113227
-0.00232418
0.00898579
0.0219714
0.0359048
0.0499396
0.0631075
0.0743407
0.0825173
0.0865649
0.085716
0.0794424
0.0656156
0.0430669
0.0111389
-0.0136222
-0.0278792
-0.0338584
-0.0346078
-0.0308617
-0.0232171
-0.0123495
0.00110036
0.0164793
0.0330478
0.0499289
0.0660787
0.0802852
0.0911961
0.0974254
0.0978657
0.0916314
0.0758916
0.0491117
-0.00597121
-0.0342706
-0.0498742
-0.0555528
-0.0550944
-0.0495189
-0.0395978
-0.0261176
-0.00976147
0.00881852
0.0288964
0.0495888
0.0697928
0.0881499
0.103043
0.112697
0.115546
0.110187
0.0928297
0.0614068
-0.0318614
-0.0638803
-0.0804211
-0.0850114
-0.0824244
-0.0740827
-0.0609852
-0.0440409
-0.0239558
-0.00134126
0.0231412
0.0486565
0.074091
0.0979677
0.118391
0.133121
0.139984
0.136814
0.118436
0.0819293
-0.0686717
-0.104608
-0.121349
-0.123594
-0.11752
-0.105131
-0.0877226
-0.0663298
-0.0416413
-0.0141599
0.0156012
0.0469488
0.0788513
0.109789
0.137619
0.159581
0.172722
0.173774
0.155516
0.113566
-0.119407
-0.159361
-0.174919
-0.172761
-0.161152
-0.142933
-0.119763
-0.0927813
-0.0625817
-0.0294519
0.00636891
0.0444693
0.0840509
0.123699
0.161132
0.193082
0.215664
0.224073
0.208046
0.160628
-0.188633
-0.232246
-0.243943
-0.233952
-0.213698
-0.187158
-0.156376
-0.122505
-0.085902
-0.0464762
-0.00401851
0.0415348
0.0898381
0.139825
0.189315
0.234685
0.27107
0.29166
0.281739
0.229772
-0.283978
-0.329308
-0.331835
-0.308284
-0.274712
-0.236443
-0.195768
-0.153614
-0.109844
-0.0637489
-0.0144416
0.0388597
0.0965506
0.158273
0.222371
0.285284
0.341393
0.381571
0.38491
0.33183
-0.419322
-0.459674
-0.442354
-0.395795
-0.342132
-0.287743
-0.234619
-0.182933
-0.131612
-0.0789881
-0.0232172
0.0374721
0.10455
0.178835
0.259858
0.344967
0.428613
0.499697
0.529672
0.485388
-0.620535
-0.636747
-0.57868
-0.494196
-0.411243
-0.335661
-0.267783
-0.20598
-0.147539
-0.0893856
-0.0284287
0.0383456
0.113804
0.200469
0.299972
0.412022
0.533027
0.651772
0.732769
0.722393
-0.935926
-0.878517
-0.741744
-0.597951
-0.474395
-0.372661
-0.288871
-0.217765
-0.153955
-0.0924661
-0.0287195
0.0416934
0.123261
0.220716
0.338924
0.482152
0.651994
0.841339
1.01527
1.0975
-1.47643
-1.20663
-0.920505
-0.69139
-0.517307
-0.387546
-0.290063
-0.213339
-0.148126
-0.0872175
-0.0245796
0.0454554
0.128935
0.233069
0.367101
0.542676
0.771291
1.05932
1.40329
1.73014
-2.53965
-1.63055
-1.04444
-0.71096
-0.495752
-0.352095
-0.254532
-0.183585
-0.126171
-0.0735971
-0.0192711
0.0427848
0.11921
0.218781
0.35481
0.547982
0.826391
1.23658
1.91167
2.92419
-4.36667
-2.04464
-0.973544
-0.563182
-0.357848
-0.240148
-0.170121
-0.123785
-0.0874832
-0.0535123
-0.0166566
0.0276585
0.0846053
0.161727
0.272409
0.442097
0.718217
1.22571
2.41103
4.84853
)
;

boundaryField
{
    movingWall
    {
        type            zeroGradient;
    }
    fixedWalls
    {
        type            zeroGradient;
    }
    frontAndBack
    {
        type            empty;
    }
}


// ************************************************************************* //
