/*--------------------------------*- C++ -*----------------------------------*\
  =========                 |
  \\      /  F ield         | OpenFOAM: The Open Source CFD Toolbox
   \\    /   O peration     | Website:  https://openfoam.org
    \\  /    A nd           | Version:  8
     \\/     M anipulation  |
\*---------------------------------------------------------------------------*/
FoamFile
{
    version     2.0;
    format      ascii;
    class       volScalarField;
    location    "4.1";
    object      T;
}
// * * * * * * * * * * * * * * * * * * * * * * * * * * * * * * * * * * * * * //

dimensions      [0 0 0 1 0 0 0];

internalField   nonuniform List<scalar> 
400
(
293.693
295.038
296.348
297.677
299.05
300.427
301.731
302.883
303.824
304.51
304.9
304.962
304.665
303.988
302.928
301.506
299.785
297.868
295.886
293.947
295.128
299.264
303.314
307.459
311.749
316.005
319.94
323.31
325.955
327.777
328.701
328.664
327.61
325.495
322.311
318.109
313.045
307.401
301.549
295.803
296.661
303.745
310.698
317.819
325.122
332.208
338.562
343.822
347.814
350.457
351.701
351.484
349.728
346.342
341.258
334.49
326.226
316.906
307.183
297.633
298.283
308.451
318.442
328.622
338.858
348.455
356.705
363.257
368.051
371.128
372.527
372.223
370.107
365.988
359.635
350.875
339.773
326.842
313.085
299.525
299.971
313.309
326.402
339.594
352.46
363.958
373.297
380.316
385.218
388.274
389.677
389.467
387.505
383.456
376.827
367.076
353.879
337.576
319.527
301.559
301.705
318.249
334.426
350.427
365.381
377.902
387.299
393.818
398.076
400.639
401.879
401.912
400.578
397.411
391.633
382.207
368.125
349.109
326.635
303.771
303.471
323.217
342.368
360.812
377.088
389.551
397.89
402.996
405.987
407.706
408.657
409.007
408.596
406.891
402.905
395.132
381.695
361.155
334.444
306.159
305.264
328.191
350.134
370.475
387.115
398.373
404.672
407.748
409.167
409.923
410.552
411.233
411.825
411.813
410.151
405.035
393.762
373.307
343.011
308.718
307.069
333.068
357.501
379.119
395.121
404.143
407.772
408.631
408.518
408.395
408.743
409.714
411.209
412.802
413.549
411.596
403.678
385.083
352.421
311.461
308.921
337.998
364.624
386.659
400.939
406.966
407.753
406.593
405.212
404.401
404.528
405.709
407.894
410.795
413.686
414.912
411.04
395.942
362.703
314.462
310.753
342.612
370.903
392.696
404.522
407.24
405.423
402.677
400.373
399.083
399.049
400.349
402.974
406.787
411.341
415.374
415.715
405.355
373.745
317.946
312.724
347.51
377.148
397.675
406.21
405.558
401.649
397.827
394.931
393.353
393.209
394.552
397.393
401.713
407.352
413.552
417.81
412.895
385.254
322.428
314.649
351.84
382.014
400.769
405.92
402.484
397.24
392.819
389.609
387.892
387.681
389.022
391.917
396.401
402.55
410.121
417.632
418.297
396.77
328.771
317.024
356.802
387.306
403.322
404.793
399.042
392.993
388.283
384.971
383.217
382.971
384.286
387.151
391.556
397.731
405.818
415.637
421.474
407.725
338.017
318.992
361.168
390.671
403.697
402.157
395.262
389.252
384.728
381.58
379.888
379.625
380.863
383.636
387.795
393.651
401.441
412.424
422.512
417.544
350.939
323.198
366.339
394.999
404.506
400.502
393.245
387.573
383.345
380.438
378.852
378.572
379.595
382.125
385.794
391.074
397.87
408.776
421.677
425.739
367.471
323.563
371.238
396.639
402.903
398.166
391.983
387.448
384.284
382.228
381.112
381.103
381.836
383.892
386.58
390.939
396.161
405.816
419.505
432.008
386.354
332.71
375.919
399.374
404.071
401.036
397.084
393.992
391.613
390.265
389.153
389.127
389.065
390.345
391.459
394.54
397.721
405.421
417.216
436.445
405.478
325.871
378.397
395.503
400.404
401.318
400.364
399.986
398.848
398.957
398.161
398.938
398.537
400.154
400.312
403.327
404.795
411.444
418.224
440.452
423.176
335.763
362.153
376.541
384.995
392.258
396.951
402.35
405.552
410.321
412.573
417.203
418.654
423.525
424.2
429.847
429.764
437.435
436.708
451.04
440.389
)
;

boundaryField
{
    movingWall
    {
        type            fixedValue;
        value           uniform 493;
    }
    fixedWalls
    {
        type            fixedValue;
        value           uniform 293;
    }
    frontAndBack
    {
        type            empty;
    }
}


// ************************************************************************* //
