/*--------------------------------*- C++ -*----------------------------------*\
  =========                 |
  \\      /  F ield         | OpenFOAM: The Open Source CFD Toolbox
   \\    /   O peration     | Website:  https://openfoam.org
    \\  /    A nd           | Version:  8
     \\/     M anipulation  |
\*---------------------------------------------------------------------------*/
FoamFile
{
    version     2.0;
    format      ascii;
    class       volScalarField;
    location    "7.5";
    object      p;
}
// * * * * * * * * * * * * * * * * * * * * * * * * * * * * * * * * * * * * * //

dimensions      [0 2 -2 0 0 0 0];

internalField   nonuniform List<scalar> 
400
(
2.69017e-07
-0.00582952
-0.012968
-0.0184206
-0.0204383
-0.0182447
-0.0117802
-0.00148998
0.0118312
0.0271431
0.0432385
0.0588172
0.0725729
0.0833028
0.0900472
0.0922614
0.0900202
0.0842382
0.076875
0.0710614
0.00577655
-0.000223087
-0.00580922
-0.0095481
-0.0106047
-0.00843871
-0.00297608
0.00546794
0.0162967
0.0287056
0.0417438
0.0543801
0.0655807
0.0744042
0.0801146
0.0823101
0.0810715
0.0770491
0.0712683
0.0653121
0.0133303
0.00502858
-0.00100064
-0.00442864
-0.00527865
-0.00326983
0.00159628
0.00902141
0.0184959
0.0293431
0.0407594
0.0518637
0.0617627
0.0696306
0.0748013
0.0768723
0.0758358
0.07208
0.0657996
0.0575295
0.0201345
0.00869077
0.00122047
-0.00267409
-0.00372782
-0.00189116
0.00272528
0.00977844
0.0187742
0.0290888
0.0399859
0.050648
0.0602271
0.0679102
0.0729974
0.0749957
0.0737599
0.0694501
0.0615969
0.0500964
0.024497
0.00976789
0.000584354
-0.00399249
-0.00530793
-0.00351314
0.00116881
0.00832851
0.0174558
0.0279429
0.0390788
0.0500638
0.0600429
0.0681591
0.0736205
0.0757918
0.074363
0.0692837
0.0595194
0.0445309
0.0251728
0.0071448
-0.00380744
-0.00906277
-0.0105178
-0.00850575
-0.00336267
0.00442347
0.0143073
0.0256729
0.0378076
0.0498971
0.061042
0.0702971
0.0767287
0.0795109
0.0781329
0.0723275
0.0605331
0.0418837
0.0210883
-0.000267647
-0.0129399
-0.0187149
-0.0200355
-0.0174197
-0.0113242
-0.00232556
0.00898448
0.0219701
0.0359035
0.0499382
0.063106
0.0743392
0.0825158
0.0865635
0.0857147
0.079441
0.0656142
0.0430655
0.0111375
-0.0136236
-0.0278805
-0.0338598
-0.0346091
-0.0308632
-0.0232186
-0.012351
0.00109898
0.0164779
0.0330465
0.0499275
0.0660773
0.0802838
0.0911946
0.097424
0.0978643
0.09163
0.0758902
0.0491103
-0.00597269
-0.034272
-0.0498755
-0.0555541
-0.0550957
-0.0495203
-0.0395993
-0.0261191
-0.00976294
0.00881713
0.0288951
0.0495875
0.0697915
0.0881485
0.103041
0.112695
0.115545
0.110186
0.0928283
0.0614054
-0.0318628
-0.0638818
-0.0804225
-0.0850127
-0.0824257
-0.074084
-0.0609866
-0.0440424
-0.0239573
-0.00134273
0.0231397
0.0486551
0.0740897
0.0979663
0.11839
0.13312
0.139983
0.136812
0.118435
0.0819279
-0.0686731
-0.104609
-0.12135
-0.123596
-0.117521
-0.105132
-0.0877239
-0.0663312
-0.0416428
-0.0141614
0.0155998
0.0469474
0.07885
0.109788
0.137618
0.15958
0.172721
0.173772
0.155515
0.113565
-0.119408
-0.159363
-0.174921
-0.172763
-0.161153
-0.142934
-0.119764
-0.0927826
-0.0625831
-0.0294533
0.00636743
0.0444678
0.0840495
0.123697
0.161131
0.19308
0.215662
0.224071
0.208045
0.160627
-0.188634
-0.232247
-0.243944
-0.233953
-0.2137
-0.18716
-0.156378
-0.122506
-0.0859033
-0.0464776
-0.00401994
0.0415333
0.0898367
0.139824
0.189313
0.234684
0.271069
0.291659
0.281737
0.22977
-0.28398
-0.32931
-0.331837
-0.308285
-0.274714
-0.236445
-0.195769
-0.153615
-0.109845
-0.0637502
-0.014443
0.0388583
0.0965492
0.158271
0.222369
0.285283
0.341392
0.38157
0.384909
0.331829
-0.419323
-0.459676
-0.442355
-0.395797
-0.342134
-0.287744
-0.23462
-0.182934
-0.131614
-0.0789895
-0.0232186
0.0374707
0.104549
0.178833
0.259857
0.344966
0.428612
0.499695
0.52967
0.485387
-0.620536
-0.636748
-0.578681
-0.494197
-0.411245
-0.335662
-0.267784
-0.205982
-0.14754
-0.089387
-0.0284301
0.0383443
0.113803
0.200468
0.299971
0.412021
0.533025
0.651771
0.732767
0.722391
-0.935928
-0.878519
-0.741745
-0.597952
-0.474396
-0.372663
-0.288872
-0.217766
-0.153957
-0.0924675
-0.0287209
0.0416921
0.12326
0.220714
0.338922
0.482151
0.651993
0.841338
1.01527
1.0975
-1.47643
-1.20663
-0.920506
-0.691391
-0.517308
-0.387547
-0.290064
-0.21334
-0.148127
-0.0872189
-0.0245811
0.045454
0.128934
0.233067
0.3671
0.542675
0.771289
1.05931
1.40328
1.73014
-2.53965
-1.63055
-1.04444
-0.710962
-0.495754
-0.352096
-0.254534
-0.183586
-0.126172
-0.0735985
-0.0192725
0.0427834
0.119209
0.218779
0.354809
0.54798
0.826389
1.23658
1.91167
2.92419
-4.36667
-2.04464
-0.973545
-0.563184
-0.357849
-0.24015
-0.170122
-0.123786
-0.0874845
-0.0535136
-0.0166579
0.0276571
0.0846039
0.161726
0.272408
0.442095
0.718215
1.22571
2.41103
4.84853
)
;

boundaryField
{
    movingWall
    {
        type            zeroGradient;
    }
    fixedWalls
    {
        type            zeroGradient;
    }
    frontAndBack
    {
        type            empty;
    }
}


// ************************************************************************* //
