/*--------------------------------*- C++ -*----------------------------------*\
  =========                 |
  \\      /  F ield         | OpenFOAM: The Open Source CFD Toolbox
   \\    /   O peration     | Website:  https://openfoam.org
    \\  /    A nd           | Version:  8
     \\/     M anipulation  |
\*---------------------------------------------------------------------------*/
FoamFile
{
    version     2.0;
    format      ascii;
    class       volScalarField;
    location    "0.2";
    object      T;
}
// * * * * * * * * * * * * * * * * * * * * * * * * * * * * * * * * * * * * * //

dimensions      [0 0 0 1 0 0 0];

internalField   nonuniform List<scalar> 
400
(
292.632
292.665
292.897
293.01
293.038
293.038
293.036
293.039
293.042
293.04
293.041
293.048
293.049
293.043
293.032
293.018
293.003
292.994
292.992
292.996
292.664
292.717
292.958
293.073
293.092
293.085
293.084
293.088
293.089
293.087
293.095
293.111
293.112
293.097
293.074
293.048
293.024
293.009
293
292.995
292.887
292.936
293.052
293.097
293.093
293.083
293.081
293.08
293.081
293.087
293.104
293.123
293.13
293.13
293.123
293.109
293.087
293.059
293.026
293.003
292.996
293.044
293.081
293.08
293.067
293.058
293.052
293.051
293.059
293.071
293.093
293.116
293.135
293.152
293.16
293.157
293.14
293.106
293.058
293.019
293.025
293.069
293.073
293.055
293.044
293.034
293.027
293.034
293.048
293.057
293.074
293.095
293.12
293.145
293.164
293.171
293.157
293.122
293.077
293.029
293.03
293.068
293.063
293.044
293.034
293.022
293.019
293.037
293.054
293.053
293.052
293.067
293.107
293.165
293.227
293.258
293.23
293.157
293.088
293.031
293.031
293.067
293.063
293.046
293.032
293.021
293.031
293.063
293.076
293.052
293.048
293.114
293.269
293.495
293.737
293.864
293.754
293.439
293.16
293.037
293.037
293.077
293.075
293.055
293.036
293.032
293.059
293.096
293.091
293.067
293.154
293.441
293.956
294.687
295.482
295.967
295.71
294.648
293.52
293.078
293.043
293.083
293.072
293.058
293.046
293.052
293.087
293.11
293.102
293.173
293.527
294.288
295.559
297.385
299.481
301.054
300.931
298.405
294.886
293.236
293.054
293.155
293.171
293.09
293.051
293.064
293.092
293.104
293.165
293.455
294.219
295.667
298.068
301.611
305.97
309.957
311.229
307.218
298.939
293.736
293.019
292.882
292.877
293.007
293.048
293.064
293.073
293.118
293.309
293.831
294.966
297.025
300.471
305.754
312.867
320.686
325.842
322.624
308.284
295.014
293.165
293.84
293.64
293.242
293.086
293.046
293.06
293.163
293.434
294.037
295.234
297.366
301.042
307.092
316.247
328.242
339.76
342.102
324.709
297.767
292.664
291.428
292.118
292.659
292.889
292.985
293.06
293.178
293.411
293.87
294.719
296.252
299.122
304.481
313.918
328.609
346.795
358.959
346.191
303.117
293.975
295.926
294.541
293.759
293.335
293.149
293.104
293.137
293.256
293.468
293.831
294.547
296.16
299.872
307.842
322.689
345.198
367.646
366.877
312.889
290.899
289.156
291.071
291.893
292.386
292.722
292.923
293.012
293.081
293.142
293.222
293.419
294.072
296.111
301.784
314.63
338.221
368.173
381.947
328.835
297.245
298.018
295.703
294.658
294.081
293.714
293.42
293.182
293.056
293.011
293.015
293.059
293.334
294.322
297.946
307.739
329.74
363.71
390.81
349.603
285.973
286.741
289.359
290.566
291.31
291.799
292.159
292.425
292.65
292.832
293.02
293.107
293.451
294.136
296.813
303.825
322.464
356.893
394.892
370.084
303.301
301.189
298.474
296.995
295.986
295.278
294.748
294.315
294.109
293.851
293.981
293.995
294.795
295.817
299.064
304.983
320.087
350.853
396.129
387.273
278.875
281.271
283.365
284.908
286.442
287.745
289.493
290.864
292.951
294.496
297.098
299.043
302.589
305.623
311.465
318.156
331.783
353.973
398.88
402.512
315.764
319.824
325.441
330.579
336.351
341.123
346.751
350.99
356.496
360.161
365.703
368.841
374.715
377.489
384.326
387.281
396.88
401.829
419.883
419.515
)
;

boundaryField
{
    movingWall
    {
        type            fixedValue;
        value           uniform 493;
    }
    fixedWalls
    {
        type            fixedValue;
        value           uniform 293;
    }
    frontAndBack
    {
        type            empty;
    }
}


// ************************************************************************* //
