/*--------------------------------*- C++ -*----------------------------------*\
  =========                 |
  \\      /  F ield         | OpenFOAM: The Open Source CFD Toolbox
   \\    /   O peration     | Website:  https://openfoam.org
    \\  /    A nd           | Version:  8
     \\/     M anipulation  |
\*---------------------------------------------------------------------------*/
FoamFile
{
    version     2.0;
    format      ascii;
    class       volScalarField;
    location    "2.1";
    object      p;
}
// * * * * * * * * * * * * * * * * * * * * * * * * * * * * * * * * * * * * * //

dimensions      [0 2 -2 0 0 0 0];

internalField   nonuniform List<scalar> 
400
(
2.22832e-06
-0.00582621
-0.0129644
-0.0184169
-0.0204346
-0.018241
-0.0117764
-0.00148624
0.0118349
0.0271467
0.0432421
0.0588209
0.0725767
0.0833066
0.090051
0.0922651
0.0900239
0.0842419
0.0768785
0.071065
0.00577989
-0.000219534
-0.00580562
-0.00954449
-0.0106011
-0.00843501
-0.00297231
0.00547173
0.0163005
0.0287093
0.0417475
0.0543838
0.0655844
0.074408
0.0801184
0.0823139
0.0810753
0.0770528
0.071272
0.0653156
0.0133339
0.00503224
-0.000996981
-0.00442502
-0.00527504
-0.0032662
0.00159998
0.00902519
0.0184997
0.0293469
0.0407631
0.0518674
0.0617663
0.0696343
0.074805
0.0768761
0.0758396
0.0720838
0.0658033
0.0575332
0.0201381
0.00869447
0.00122419
-0.0026704
-0.00372419
-0.00188756
0.0027289
0.00978215
0.018778
0.0290927
0.0399896
0.0506517
0.0602307
0.0679138
0.073001
0.0749994
0.0737637
0.0694539
0.0616007
0.0501001
0.0245006
0.00977159
0.000588108
-0.00398872
-0.00530422
-0.00350951
0.0011724
0.00833213
0.0174595
0.0279467
0.0390826
0.0500676
0.0600466
0.0681628
0.0736241
0.0757954
0.0743667
0.0692875
0.0595232
0.0445347
0.0251765
0.00714846
-0.00380371
-0.00905898
-0.010514
-0.00850203
-0.00335904
0.00442705
0.0143109
0.0256766
0.0378114
0.049901
0.0610458
0.0703008
0.0767323
0.0795145
0.0781365
0.0723312
0.0605369
0.0418875
0.021092
-0.000264012
-0.0129363
-0.0187111
-0.0200317
-0.0174159
-0.0113205
-0.00232195
0.00898804
0.0219737
0.0359072
0.049942
0.0631098
0.074343
0.0825196
0.0865671
0.0857183
0.0794447
0.0656179
0.0430692
0.0111412
-0.0136199
-0.0278769
-0.0338561
-0.0346054
-0.0308594
-0.0232148
-0.0123473
0.0011026
0.0164815
0.0330501
0.0499312
0.066081
0.0802876
0.0911984
0.0974277
0.0978679
0.0916337
0.0758939
0.0491141
-0.00596888
-0.0342683
-0.0498719
-0.0555505
-0.0550921
-0.0495165
-0.0395954
-0.0261153
-0.00975921
0.00882076
0.0288987
0.0495911
0.0697952
0.0881523
0.103045
0.112699
0.115548
0.11019
0.0928319
0.0614091
-0.031859
-0.063878
-0.0804188
-0.0850091
-0.0824221
-0.0740803
-0.0609828
-0.0440386
-0.0239535
-0.00133899
0.0231434
0.0486587
0.0740933
0.09797
0.118394
0.133124
0.139986
0.136816
0.118439
0.0819316
-0.0686693
-0.104605
-0.121346
-0.123592
-0.117517
-0.105129
-0.0877202
-0.0663274
-0.0416389
-0.0141576
0.0156035
0.0469511
0.0788536
0.109791
0.137622
0.159584
0.172725
0.173776
0.155518
0.113569
-0.119404
-0.159359
-0.174917
-0.172759
-0.16115
-0.142931
-0.119761
-0.0927789
-0.0625793
-0.0294495
0.00637124
0.0444716
0.0840532
0.123701
0.161134
0.193084
0.215666
0.224075
0.208049
0.160631
-0.18863
-0.232244
-0.24394
-0.233949
-0.213696
-0.187156
-0.156374
-0.122503
-0.0858996
-0.0464739
-0.00401614
0.0415372
0.0898405
0.139828
0.189317
0.234688
0.271073
0.291663
0.281741
0.229774
-0.283976
-0.329306
-0.331833
-0.308281
-0.27471
-0.236441
-0.195766
-0.153611
-0.109841
-0.0637466
-0.0144393
0.0388621
0.0965529
0.158275
0.222373
0.285287
0.341396
0.381574
0.384913
0.331833
-0.41932
-0.459672
-0.442351
-0.395793
-0.34213
-0.28774
-0.234617
-0.182931
-0.13161
-0.0789858
-0.0232149
0.0374744
0.104552
0.178837
0.25986
0.344969
0.428615
0.499699
0.529674
0.485391
-0.620532
-0.636744
-0.578678
-0.494193
-0.411241
-0.335658
-0.267781
-0.205978
-0.147537
-0.0893833
-0.0284264
0.0383479
0.113806
0.200471
0.299975
0.412025
0.533029
0.651775
0.732771
0.722395
-0.935924
-0.878515
-0.741741
-0.597948
-0.474393
-0.372659
-0.288868
-0.217762
-0.153953
-0.0924638
-0.0287172
0.0416957
0.123263
0.220718
0.338926
0.482155
0.651997
0.841342
1.01527
1.0975
-1.47642
-1.20663
-0.920503
-0.691387
-0.517304
-0.387543
-0.290061
-0.213337
-0.148123
-0.0872152
-0.0245773
0.0454577
0.128938
0.233071
0.367103
0.542678
0.771293
1.05932
1.40329
1.73014
-2.53965
-1.63055
-1.04444
-0.710958
-0.49575
-0.352093
-0.25453
-0.183583
-0.126169
-0.0735948
-0.0192688
0.0427871
0.119212
0.218783
0.354812
0.547984
0.826393
1.23658
1.91168
2.92419
-4.36666
-2.04463
-0.973542
-0.56318
-0.357846
-0.240146
-0.170119
-0.123782
-0.0874809
-0.05351
-0.0166542
0.0276608
0.0846076
0.16173
0.272411
0.442099
0.718219
1.22571
2.41103
4.84853
)
;

boundaryField
{
    movingWall
    {
        type            zeroGradient;
    }
    fixedWalls
    {
        type            zeroGradient;
    }
    frontAndBack
    {
        type            empty;
    }
}


// ************************************************************************* //
