/*--------------------------------*- C++ -*----------------------------------*\
  =========                 |
  \\      /  F ield         | OpenFOAM: The Open Source CFD Toolbox
   \\    /   O peration     | Website:  https://openfoam.org
    \\  /    A nd           | Version:  8
     \\/     M anipulation  |
\*---------------------------------------------------------------------------*/
FoamFile
{
    version     2.0;
    format      ascii;
    class       volScalarField;
    location    "2.1";
    object      T;
}
// * * * * * * * * * * * * * * * * * * * * * * * * * * * * * * * * * * * * * //

dimensions      [0 0 0 1 0 0 0];

internalField   nonuniform List<scalar> 
400
(
293.357
294.108
294.995
296.07
297.298
298.574
299.79
300.867
301.758
302.425
302.836
302.959
302.765
302.234
301.36
300.163
298.701
297.073
295.402
293.785
294.126
296.509
299.344
302.791
306.692
310.667
314.353
317.524
320.055
321.868
322.894
323.074
322.347
320.665
318.013
314.435
310.079
305.219
300.213
295.354
295.026
299.295
304.374
310.492
317.254
323.928
329.915
334.91
338.788
341.486
342.953
343.128
341.923
339.234
334.978
329.15
321.925
313.737
305.234
296.976
296.069
302.489
310.09
319.082
328.692
337.777
345.579
351.835
356.527
359.712
361.435
361.674
360.31
357.131
351.876
344.337
334.547
323.007
310.723
298.728
297.24
306.025
316.331
328.226
340.395
351.264
360.038
366.661
371.383
374.51
376.263
376.698
375.668
372.81
367.581
359.375
347.804
333.167
316.832
300.654
298.513
309.81
322.89
337.51
351.65
363.338
371.936
377.824
381.696
384.2
385.76
386.516
386.303
384.616
380.602
373.126
361.068
344.069
323.595
302.76
299.862
313.751
329.546
346.508
361.758
373.046
380.208
384.326
386.648
388.137
389.362
390.518
391.439
391.543
389.747
384.409
373.484
355.391
331.019
305.035
301.273
317.809
336.166
354.85
370.115
379.716
384.348
386.011
386.455
386.803
387.658
389.231
391.375
393.524
394.525
392.401
384.217
366.726
339.164
307.475
302.701
321.768
342.377
362.129
376.292
383.058
384.47
383.48
382.09
381.383
381.901
383.837
387.091
391.198
395.104
396.756
392.595
377.579
348.11
310.093
304.221
325.98
348.511
368.268
380.077
383.175
381.189
377.766
374.825
373.257
373.492
375.687
379.807
385.545
392.08
397.555
398.182
387.383
357.878
312.961
305.627
329.505
353.48
372.673
381.39
380.512
375.406
370.031
365.92
363.718
363.721
366.05
370.733
377.643
386.279
395.193
400.823
395.582
368.337
316.298
307.343
334.019
358.838
376.076
380.677
375.749
368.113
361.378
356.488
353.876
353.695
356.043
360.99
368.57
378.627
390.277
400.616
401.725
379.176
320.604
308.613
336.66
362.02
377.116
377.713
369.531
360.29
352.79
347.487
344.662
344.344
346.624
351.584
359.361
370.108
383.561
397.883
405.526
389.915
326.718
310.957
341.859
366.526
378.007
374.135
363.203
352.994
345.163
339.766
336.894
336.488
338.638
343.435
351.014
361.758
375.938
393.136
406.889
399.967
335.644
311.558
343.414
367.647
375.911
368.752
356.71
346.733
339.297
334.224
331.484
331.03
332.978
337.47
344.533
354.681
368.463
387.1
405.918
408.733
348.108
316.478
349.664
371.448
375.397
365.452
353.193
343.835
336.967
332.334
329.803
329.324
330.934
334.917
341.1
350.146
362.445
380.818
402.956
415.722
364.002
313.788
350.191
370.131
371.353
361.387
351.098
343.651
338.457
335.107
333.331
333.227
334.491
337.712
342.433
349.815
359.647
375.936
398.776
420.673
382.055
325.17
357.249
373.803
373.587
366.284
359.168
353.877
350.03
347.728
346.165
346.039
346.36
348.398
350.943
356.106
362.679
375.41
395.246
423.908
400.219
313.62
353.655
367.148
370.07
369.449
367.469
366.349
364.847
364.708
363.98
364.868
364.929
367.049
368.215
372.401
376.008
385.477
397.632
427.615
417.054
330.415
351.06
363.295
370.835
377.559
382.078
387.326
390.615
395.374
397.853
402.542
404.343
409.334
410.532
416.413
417.194
425.418
426.411
441.989
434.273
)
;

boundaryField
{
    movingWall
    {
        type            fixedValue;
        value           uniform 493;
    }
    fixedWalls
    {
        type            fixedValue;
        value           uniform 293;
    }
    frontAndBack
    {
        type            empty;
    }
}


// ************************************************************************* //
