/*--------------------------------*- C++ -*----------------------------------*\
  =========                 |
  \\      /  F ield         | OpenFOAM: The Open Source CFD Toolbox
   \\    /   O peration     | Website:  https://openfoam.org
    \\  /    A nd           | Version:  8
     \\/     M anipulation  |
\*---------------------------------------------------------------------------*/
FoamFile
{
    version     2.0;
    format      ascii;
    class       volScalarField;
    location    "4";
    object      p;
}
// * * * * * * * * * * * * * * * * * * * * * * * * * * * * * * * * * * * * * //

dimensions      [0 2 -2 0 0 0 0];

internalField   nonuniform List<scalar> 
400
(
1.04592e-06
-0.00582821
-0.0129666
-0.0184191
-0.0204368
-0.0182432
-0.0117787
-0.00148854
0.0118326
0.0271445
0.04324
0.0588188
0.0725745
0.0833044
0.0900487
0.0922628
0.0900216
0.0842396
0.0768764
0.0710628
0.00577788
-0.000221691
-0.00580782
-0.00954668
-0.0106033
-0.0084372
-0.00297454
0.00546946
0.0162982
0.028707
0.0417452
0.0543816
0.0655822
0.0744058
0.0801161
0.0823116
0.081073
0.0770505
0.0712697
0.0653135
0.0133317
0.00503004
-0.000999214
-0.00442725
-0.00527724
-0.00326837
0.00159781
0.00902297
0.0184974
0.0293446
0.0407608
0.0518651
0.0617641
0.0696321
0.0748028
0.0768739
0.0758373
0.0720815
0.065801
0.057531
0.0201359
0.00869226
0.00122194
-0.00267267
-0.00372644
-0.00188976
0.00272674
0.00977999
0.0187758
0.0290904
0.0399873
0.0506494
0.0602284
0.0679116
0.0729989
0.0749972
0.0737615
0.0694517
0.0615984
0.0500979
0.0244984
0.0097694
0.000585881
-0.003991
-0.00530651
-0.00351178
0.0011702
0.00832997
0.0174574
0.0279444
0.0390804
0.0500653
0.0600443
0.0681605
0.0736219
0.0757933
0.0743645
0.0692853
0.0595209
0.0445324
0.0251742
0.00714628
-0.0038059
-0.00906122
-0.0105163
-0.00850435
-0.00336131
0.00442485
0.0143088
0.0256744
0.0378092
0.0498987
0.0610435
0.0702985
0.07673
0.0795123
0.0781344
0.072329
0.0605346
0.0418853
0.0210897
-0.000266215
-0.0129384
-0.0187133
-0.0200339
-0.0174182
-0.0113228
-0.00232422
0.00898585
0.0219716
0.0359051
0.0499398
0.0631076
0.0743407
0.0825173
0.0865649
0.0857161
0.0794425
0.0656157
0.043067
0.0111389
-0.0136222
-0.0278791
-0.0338582
-0.0346076
-0.0308616
-0.0232172
-0.0123496
0.00110032
0.0164793
0.033048
0.0499291
0.0660788
0.0802853
0.0911961
0.0974254
0.0978657
0.0916314
0.0758917
0.0491118
-0.00597119
-0.0342706
-0.0498742
-0.0555527
-0.0550942
-0.0495187
-0.0395977
-0.0261176
-0.00976154
0.00881849
0.0288965
0.049589
0.069793
0.0881501
0.103043
0.112697
0.115546
0.110187
0.0928297
0.0614068
-0.0318613
-0.0638803
-0.0804211
-0.0850114
-0.0824242
-0.0740824
-0.060985
-0.0440408
-0.0239558
-0.00134132
0.0231411
0.0486565
0.0740911
0.0979678
0.118392
0.133121
0.139984
0.136814
0.118436
0.0819293
-0.0686715
-0.104608
-0.121349
-0.123594
-0.11752
-0.105131
-0.0877224
-0.0663296
-0.0416412
-0.0141599
0.0156012
0.0469488
0.0788514
0.109789
0.137619
0.159581
0.172723
0.173774
0.155516
0.113566
-0.119406
-0.159361
-0.174919
-0.172761
-0.161152
-0.142933
-0.119763
-0.0927811
-0.0625815
-0.0294518
0.00636895
0.0444693
0.0840509
0.123699
0.161132
0.193082
0.215664
0.224073
0.208046
0.160628
-0.188632
-0.232246
-0.243943
-0.233952
-0.213698
-0.187158
-0.156376
-0.122505
-0.0859018
-0.0464761
-0.00401838
0.0415349
0.0898382
0.139825
0.189315
0.234685
0.271071
0.29166
0.281739
0.229772
-0.283978
-0.329308
-0.331835
-0.308284
-0.274712
-0.236443
-0.195768
-0.153614
-0.109844
-0.0637487
-0.0144414
0.0388599
0.0965507
0.158273
0.222371
0.285284
0.341394
0.381571
0.38491
0.33183
-0.419322
-0.459674
-0.442354
-0.395795
-0.342132
-0.287742
-0.234619
-0.182933
-0.131612
-0.0789881
-0.0232171
0.0374722
0.10455
0.178835
0.259858
0.344967
0.428613
0.499697
0.529672
0.485388
-0.620535
-0.636747
-0.57868
-0.494196
-0.411243
-0.335661
-0.267783
-0.20598
-0.147539
-0.0893855
-0.0284286
0.0383457
0.113804
0.200469
0.299972
0.412022
0.533027
0.651772
0.732769
0.722393
-0.935926
-0.878517
-0.741744
-0.597951
-0.474395
-0.372661
-0.28887
-0.217765
-0.153955
-0.092466
-0.0287195
0.0416935
0.123261
0.220716
0.338924
0.482152
0.651994
0.841339
1.01527
1.0975
-1.47643
-1.20663
-0.920505
-0.69139
-0.517307
-0.387546
-0.290063
-0.213339
-0.148126
-0.0872174
-0.0245796
0.0454555
0.128935
0.233069
0.367101
0.542676
0.771291
1.05932
1.40329
1.73014
-2.53965
-1.63055
-1.04444
-0.71096
-0.495752
-0.352095
-0.254532
-0.183585
-0.126171
-0.073597
-0.019271
0.0427849
0.11921
0.218781
0.35481
0.547982
0.826391
1.23658
1.91168
2.92419
-4.36667
-2.04464
-0.973544
-0.563182
-0.357848
-0.240148
-0.170121
-0.123785
-0.0874831
-0.0535122
-0.0166564
0.0276586
0.0846054
0.161727
0.272409
0.442097
0.718217
1.22571
2.41103
4.84853
)
;

boundaryField
{
    movingWall
    {
        type            zeroGradient;
    }
    fixedWalls
    {
        type            zeroGradient;
    }
    frontAndBack
    {
        type            empty;
    }
}


// ************************************************************************* //
