/*--------------------------------*- C++ -*----------------------------------*\
  =========                 |
  \\      /  F ield         | OpenFOAM: The Open Source CFD Toolbox
   \\    /   O peration     | Website:  https://openfoam.org
    \\  /    A nd           | Version:  8
     \\/     M anipulation  |
\*---------------------------------------------------------------------------*/
FoamFile
{
    version     2.0;
    format      ascii;
    class       volScalarField;
    location    "4";
    object      T;
}
// * * * * * * * * * * * * * * * * * * * * * * * * * * * * * * * * * * * * * //

dimensions      [0 0 0 1 0 0 0];

internalField   nonuniform List<scalar> 
400
(
293.687
295.022
296.323
297.645
299.013
300.386
301.686
302.835
303.774
304.458
304.849
304.912
304.618
303.945
302.89
301.474
299.759
297.849
295.875
293.943
295.11
299.214
303.239
307.366
311.64
315.883
319.806
323.167
325.807
327.627
328.553
328.521
327.476
325.373
322.203
318.018
312.973
307.349
301.517
295.792
296.632
303.663
310.576
317.666
324.944
332.009
338.345
343.592
347.577
350.22
351.467
351.26
349.519
346.154
341.093
334.351
326.115
316.827
307.135
297.617
298.242
308.338
318.274
328.414
338.616
348.185
356.412
362.948
367.734
370.81
372.215
371.925
369.831
365.74
359.419
350.695
339.632
326.741
313.023
299.505
299.919
313.166
326.191
339.333
352.158
363.621
372.931
379.928
384.818
387.872
389.282
389.091
387.156
383.145
376.559
366.856
353.708
337.453
319.453
301.535
301.642
318.079
334.174
350.116
365.02
377.497
386.856
393.346
397.584
400.141
401.389
401.444
400.145
397.026
391.304
381.94
367.92
348.965
326.549
303.743
303.398
323.019
342.077
360.451
376.667
389.073
397.361
402.427
405.388
407.096
408.053
408.429
408.062
406.417
402.504
394.809
381.452
360.987
334.346
306.127
305.181
327.966
349.804
370.064
386.629
397.815
404.047
407.066
408.445
409.182
409.816
410.527
411.174
411.237
409.666
404.648
393.475
373.113
342.899
308.682
306.975
332.815
357.131
378.654
394.565
403.494
407.036
407.821
407.656
407.507
407.858
408.864
410.423
412.107
412.965
411.134
403.34
384.86
352.295
311.422
308.817
337.721
364.215
386.138
400.306
406.216
406.893
405.642
404.195
403.35
403.479
404.699
406.958
409.966
412.989
414.364
410.643
395.684
362.561
314.418
310.637
342.301
370.446
392.112
403.802
406.377
404.428
401.572
399.188
397.857
397.823
399.165
401.874
405.809
410.518
414.726
415.249
405.057
373.585
317.897
312.598
347.18
376.651
397.025
405.396
404.575
400.511
396.561
393.574
391.948
391.801
393.188
396.121
400.577
406.39
412.794
417.266
412.551
385.073
322.374
314.504
351.459
381.458
400.042
405.004
401.375
395.957
391.393
388.083
386.312
386.095
387.481
390.473
395.103
401.443
409.241
416.999
417.9
396.563
328.71
316.875
356.415
386.708
402.523
403.775
397.809
391.572
386.712
383.295
381.482
381.229
382.588
385.549
390.105
396.48
404.813
414.906
421.016
407.49
337.946
318.804
360.699
389.996
402.806
401.032
393.914
387.715
383.043
379.792
378.043
377.771
379.05
381.914
386.217
392.272
400.314
411.591
421.986
417.275
350.854
323.025
365.884
394.285
403.55
399.3
391.824
385.973
381.61
378.611
376.974
376.685
377.742
380.351
384.148
389.608
396.645
407.845
421.077
425.432
367.367
323.305
370.655
395.83
401.865
396.906
390.537
385.86
382.592
380.467
379.313
379.299
380.058
382.174
384.962
389.465
394.891
404.814
418.835
431.657
386.226
332.506
375.384
398.568
403.052
399.843
395.758
392.569
390.124
388.731
387.597
387.566
387.521
388.837
390.015
393.191
396.515
404.416
416.504
436.054
405.32
325.535
377.696
394.648
399.451
400.293
399.291
398.877
397.718
397.813
397.014
397.793
397.406
399.042
399.236
402.295
403.842
410.595
417.561
440.052
422.991
335.618
361.849
376.167
384.588
391.829
396.512
401.902
405.103
409.869
412.126
416.755
418.215
423.088
423.778
429.432
429.376
437.065
436.393
450.767
440.205
)
;

boundaryField
{
    movingWall
    {
        type            fixedValue;
        value           uniform 493;
    }
    fixedWalls
    {
        type            fixedValue;
        value           uniform 293;
    }
    frontAndBack
    {
        type            empty;
    }
}


// ************************************************************************* //
