/*--------------------------------*- C++ -*----------------------------------*\
  =========                 |
  \\      /  F ield         | OpenFOAM: The Open Source CFD Toolbox
   \\    /   O peration     | Website:  https://openfoam.org
    \\  /    A nd           | Version:  8
     \\/     M anipulation  |
\*---------------------------------------------------------------------------*/
FoamFile
{
    version     2.0;
    format      ascii;
    class       volScalarField;
    location    "2.2";
    object      p;
}
// * * * * * * * * * * * * * * * * * * * * * * * * * * * * * * * * * * * * * //

dimensions      [0 2 -2 0 0 0 0];

internalField   nonuniform List<scalar> 
400
(
2.14028e-06
-0.00582634
-0.0129645
-0.0184171
-0.0204348
-0.0182412
-0.0117767
-0.00148642
0.0118348
0.0271467
0.0432421
0.0588208
0.0725765
0.0833064
0.0900507
0.0922649
0.0900238
0.0842418
0.0768785
0.071065
0.00577972
-0.000219699
-0.00580576
-0.0095446
-0.0106012
-0.00843519
-0.00297255
0.00547148
0.0163003
0.0287092
0.0417474
0.0543837
0.0655842
0.0744078
0.0801181
0.0823136
0.0810751
0.0770526
0.0712719
0.0653156
0.0133337
0.00503204
-0.000997153
-0.00442514
-0.00527513
-0.00326631
0.0015998
0.00902494
0.0184994
0.0293467
0.040763
0.0518673
0.0617663
0.0696342
0.0748048
0.0768758
0.0758393
0.0720836
0.0658031
0.0575331
0.020138
0.00869426
0.00122397
-0.00267057
-0.00372429
-0.00188762
0.00272881
0.00978197
0.0187777
0.0290924
0.0399894
0.0506516
0.0602306
0.0679137
0.073001
0.0749992
0.0737634
0.0694537
0.0616005
0.0501
0.0245005
0.0097714
0.000587864
-0.00398897
-0.00530439
-0.00350959
0.00117236
0.00833204
0.0174593
0.0279464
0.0390823
0.0500674
0.0600464
0.0681627
0.073624
0.0757954
0.0743666
0.0692873
0.059523
0.0445344
0.0251764
0.00714833
-0.00380392
-0.00905925
-0.0105143
-0.0085022
-0.00335911
0.00442702
0.0143108
0.0256764
0.0378111
0.0499007
0.0610455
0.0703007
0.0767322
0.0795145
0.0781365
0.072331
0.0605366
0.0418873
0.0210919
-0.000264101
-0.0129364
-0.0187114
-0.020032
-0.0174161
-0.0113206
-0.002322
0.00898803
0.0219737
0.035907
0.0499417
0.0631095
0.0743427
0.0825194
0.086567
0.0857183
0.0794446
0.0656178
0.043069
0.011141
-0.01362
-0.0278769
-0.0338562
-0.0346056
-0.0308597
-0.0232151
-0.0123474
0.00110254
0.0164815
0.0330501
0.0499311
0.0660808
0.0802873
0.0911982
0.0974275
0.0978678
0.0916336
0.0758938
0.0491139
-0.00596913
-0.0342684
-0.049872
-0.0555506
-0.0550922
-0.0495168
-0.0395957
-0.0261156
-0.00975938
0.00882069
0.0288986
0.0495911
0.069795
0.088152
0.103045
0.112699
0.115548
0.110189
0.0928318
0.0614089
-0.0318593
-0.0638782
-0.0804189
-0.0850092
-0.0824221
-0.0740804
-0.0609831
-0.0440389
-0.0239538
-0.00133917
0.0231433
0.0486587
0.0740933
0.0979699
0.118394
0.133123
0.139986
0.136816
0.118438
0.0819314
-0.0686695
-0.104606
-0.121347
-0.123592
-0.117517
-0.105129
-0.0877204
-0.0663277
-0.0416393
-0.0141579
0.0156033
0.046951
0.0788535
0.109791
0.137622
0.159583
0.172725
0.173776
0.155518
0.113569
-0.119404
-0.159359
-0.174917
-0.172759
-0.16115
-0.142931
-0.119761
-0.0927791
-0.0625796
-0.0294498
0.00637097
0.0444714
0.084053
0.123701
0.161134
0.193084
0.215666
0.224075
0.208048
0.16063
-0.18863
-0.232244
-0.243941
-0.23395
-0.213696
-0.187156
-0.156374
-0.122503
-0.0858998
-0.0464741
-0.0040164
0.0415369
0.0898402
0.139827
0.189317
0.234687
0.271073
0.291662
0.281741
0.229774
-0.283976
-0.329306
-0.331833
-0.308282
-0.27471
-0.236441
-0.195766
-0.153611
-0.109842
-0.0637467
-0.0144394
0.0388618
0.0965527
0.158275
0.222373
0.285286
0.341396
0.381574
0.384913
0.331833
-0.41932
-0.459672
-0.442352
-0.395793
-0.34213
-0.28774
-0.234617
-0.182931
-0.13161
-0.0789859
-0.023215
0.0374743
0.104552
0.178837
0.25986
0.344969
0.428615
0.499699
0.529674
0.48539
-0.620532
-0.636744
-0.578678
-0.494194
-0.411241
-0.335659
-0.267781
-0.205978
-0.147537
-0.0893834
-0.0284265
0.0383478
0.113806
0.200471
0.299975
0.412024
0.533029
0.651774
0.732771
0.722395
-0.935924
-0.878515
-0.741742
-0.597948
-0.474393
-0.372659
-0.288868
-0.217763
-0.153953
-0.092464
-0.0287174
0.0416956
0.123263
0.220718
0.338926
0.482155
0.651996
0.841341
1.01527
1.0975
-1.47642
-1.20663
-0.920503
-0.691388
-0.517305
-0.387544
-0.290061
-0.213337
-0.148124
-0.0872154
-0.0245775
0.0454576
0.128937
0.233071
0.367103
0.542678
0.771293
1.05932
1.40329
1.73014
-2.53965
-1.63055
-1.04444
-0.710958
-0.49575
-0.352093
-0.25453
-0.183583
-0.126169
-0.073595
-0.019269
0.0427869
0.119212
0.218783
0.354812
0.547984
0.826393
1.23658
1.91168
2.92419
-4.36666
-2.04463
-0.973542
-0.56318
-0.357846
-0.240146
-0.170119
-0.123783
-0.087481
-0.0535101
-0.0166544
0.0276606
0.0846074
0.161729
0.272411
0.442099
0.718219
1.22571
2.41103
4.84853
)
;

boundaryField
{
    movingWall
    {
        type            zeroGradient;
    }
    fixedWalls
    {
        type            zeroGradient;
    }
    frontAndBack
    {
        type            empty;
    }
}


// ************************************************************************* //
