/*--------------------------------*- C++ -*----------------------------------*\
  =========                 |
  \\      /  F ield         | OpenFOAM: The Open Source CFD Toolbox
   \\    /   O peration     | Website:  https://openfoam.org
    \\  /    A nd           | Version:  8
     \\/     M anipulation  |
\*---------------------------------------------------------------------------*/
FoamFile
{
    version     2.0;
    format      ascii;
    class       volScalarField;
    location    "2.2";
    object      T;
}
// * * * * * * * * * * * * * * * * * * * * * * * * * * * * * * * * * * * * * //

dimensions      [0 0 0 1 0 0 0];

internalField   nonuniform List<scalar> 
400
(
293.395
294.215
295.153
296.259
297.5
298.781
299.998
301.077
301.969
302.635
303.042
303.159
302.955
302.411
301.519
300.301
298.814
297.157
295.454
293.803
294.24
296.827
299.807
303.335
307.265
311.246
314.934
318.107
320.639
322.445
323.458
323.616
322.858
321.137
318.437
314.802
310.38
305.444
300.353
295.402
295.213
299.808
305.107
311.329
318.116
324.787
330.772
335.767
339.639
342.321
343.762
343.898
342.642
339.893
335.565
329.655
322.339
314.048
305.428
297.043
296.322
303.173
311.044
320.14
329.755
338.827
346.624
352.876
357.556
360.718
362.405
362.594
361.165
357.907
352.561
344.921
335.021
323.361
310.945
298.804
297.551
306.853
317.459
329.441
341.594
352.445
361.22
367.844
372.56
375.668
377.385
377.765
376.658
373.706
368.366
360.036
348.332
333.557
317.074
300.737
298.873
310.758
324.151
338.835
352.947
364.627
373.245
379.154
383.039
385.537
387.066
387.764
387.464
385.664
381.515
373.887
361.667
344.503
323.86
302.849
300.264
314.797
330.909
347.916
363.139
374.447
381.662
385.83
388.188
389.685
390.882
391.977
392.799
392.771
390.813
385.29
374.17
355.88
331.314
305.133
301.712
318.935
337.608
356.324
371.582
381.246
385.972
387.717
388.217
388.581
389.41
390.916
392.951
394.95
395.763
393.419
385.002
367.278
339.491
307.581
303.174
322.969
343.892
363.67
377.86
384.74
386.285
385.404
384.082
383.394
383.887
385.754
388.893
392.836
396.529
397.928
393.491
378.2
348.474
310.21
304.721
327.23
350.075
369.875
381.761
385.028
383.209
379.911
377.04
375.492
375.704
377.832
381.836
387.403
393.708
398.897
399.205
388.083
358.282
313.088
306.164
330.84
355.124
374.367
383.21
382.547
377.63
372.384
368.338
366.156
366.139
368.407
372.982
379.723
388.119
396.722
401.987
396.371
368.786
316.436
307.895
335.363
360.509
377.845
382.639
377.967
370.528
363.913
359.08
356.483
356.285
358.582
363.435
370.859
380.68
392.003
401.939
402.615
379.677
320.757
309.221
338.142
363.803
379.008
379.837
371.926
362.87
355.473
350.212
347.397
347.065
349.306
354.192
361.836
372.364
385.489
399.377
406.531
390.476
326.89
311.557
343.28
368.315
379.971
376.391
365.743
355.704
347.956
342.586
339.718
339.299
341.422
346.164
353.638
364.192
378.06
394.811
408.022
400.596
335.841
312.278
345.073
369.595
378.035
371.173
359.389
349.547
342.17
337.112
334.37
333.904
335.831
340.282
347.262
357.256
370.757
388.955
407.192
409.443
348.343
317.118
351.177
373.365
377.555
367.937
355.923
346.694
339.888
335.274
332.745
332.255
333.842
337.783
343.892
352.811
364.871
382.837
404.376
416.521
364.289
314.698
352.075
372.278
373.694
364.003
353.907
346.562
341.422
338.091
336.312
336.191
337.422
340.594
345.237
352.506
362.136
378.076
400.333
421.57
382.409
325.86
358.866
375.797
375.796
368.73
361.786
356.601
352.817
350.55
348.996
348.867
349.162
351.162
353.639
358.708
365.112
377.57
396.89
424.893
400.65
314.724
355.818
369.471
372.441
371.873
369.929
368.836
367.337
367.2
366.454
367.326
367.349
369.433
370.531
374.645
378.114
387.405
399.19
428.625
417.554
330.903
352.058
364.458
372.054
378.805
383.324
388.573
391.844
396.595
399.048
403.726
405.493
410.47
411.622
417.483
418.195
426.378
427.24
442.73
434.776
)
;

boundaryField
{
    movingWall
    {
        type            fixedValue;
        value           uniform 493;
    }
    fixedWalls
    {
        type            fixedValue;
        value           uniform 293;
    }
    frontAndBack
    {
        type            empty;
    }
}


// ************************************************************************* //
