/*--------------------------------*- C++ -*----------------------------------*\
  =========                 |
  \\      /  F ield         | OpenFOAM: The Open Source CFD Toolbox
   \\    /   O peration     | Website:  https://openfoam.org
    \\  /    A nd           | Version:  8
     \\/     M anipulation  |
\*---------------------------------------------------------------------------*/
FoamFile
{
    version     2.0;
    format      ascii;
    class       volScalarField;
    location    "5.8";
    object      T;
}
// * * * * * * * * * * * * * * * * * * * * * * * * * * * * * * * * * * * * * //

dimensions      [0 0 0 1 0 0 0];

internalField   nonuniform List<scalar> 
400
(
293.754
295.213
296.615
298.019
299.457
300.891
302.244
303.436
304.404
305.102
305.491
305.535
305.207
304.485
303.367
301.876
300.078
298.078
296.012
293.988
295.314
299.789
304.117
308.488
312.97
317.396
321.475
324.953
327.666
329.513
330.418
330.32
329.164
326.911
323.556
319.157
313.875
307.999
301.907
295.921
296.972
304.62
312.029
319.515
327.13
334.49
341.068
346.491
350.577
353.245
354.442
354.111
352.178
348.56
343.196
336.111
327.505
317.827
307.737
297.817
298.718
309.667
320.284
330.962
341.622
351.586
360.133
366.897
371.812
374.914
376.24
375.769
373.397
368.945
362.197
353.001
341.439
328.036
313.802
299.762
300.528
314.857
328.739
342.557
355.956
367.918
377.636
384.935
390.006
393.109
394.427
394.001
391.697
387.201
380.044
369.716
355.924
339.027
320.393
301.845
302.382
320.122
337.246
354
369.607
382.709
392.602
399.509
404.021
406.679
407.836
407.603
405.831
402.079
395.608
385.429
370.584
350.829
327.651
304.103
304.268
325.41
345.666
365
382.071
395.271
404.269
409.916
413.279
415.161
416.037
416.068
415.107
412.654
407.775
399.033
384.625
363.17
335.618
306.538
306.182
330.699
353.909
375.297
392.91
405.11
412.281
416.089
418.023
419.02
419.587
419.892
419.809
418.863
416.075
409.731
397.233
375.647
344.352
309.144
308.112
335.91
361.78
384.616
401.808
412.027
416.784
418.591
419.152
419.363
419.665
420.2
420.885
421.341
420.7
417.222
407.778
387.791
353.941
311.937
310.086
341.145
369.395
392.874
408.616
416.141
418.339
418.363
417.826
417.447
417.55
418.239
419.477
421.026
422.249
421.618
415.874
399.07
364.421
314.989
312.069
346.172
376.263
399.717
413.301
417.844
417.739
416.416
415.129
414.375
414.346
415.103
416.651
418.901
421.496
423.318
421.4
408.97
375.686
318.529
314.154
351.315
383.03
405.53
416.182
417.709
415.808
413.639
411.927
410.984
410.878
411.641
413.292
415.857
419.26
422.891
424.477
417.077
387.451
323.077
316.308
356.259
388.63
409.611
417.207
416.266
413.285
410.71
408.822
407.824
407.686
408.429
410.058
412.637
416.317
420.987
425.409
423.137
399.265
329.504
318.743
361.321
394.481
413.102
417.386
414.422
410.833
408.097
406.188
405.203
405.061
405.789
407.366
409.795
413.355
418.284
424.638
427.071
410.573
338.866
321.17
366.679
398.787
414.631
416.124
412.138
408.622
406.061
404.29
403.359
403.219
403.917
405.464
407.694
410.936
415.458
422.71
428.961
420.806
351.953
325.219
371.732
403.668
416.315
415.487
411.107
407.791
405.36
403.69
402.786
402.63
403.197
404.667
406.617
409.5
413.159
420.289
429.041
429.484
368.718
326.604
378.163
406.469
415.737
413.889
410.142
407.5
405.725
404.598
403.977
404.052
404.43
405.684
407.033
409.473
412.024
418.235
427.743
436.285
387.908
335.111
382.324
409.232
416.698
415.91
413.683
411.857
410.365
409.603
408.787
408.823
408.536
409.339
409.599
411.447
412.76
417.868
425.991
441.212
407.391
329.855
386.779
405.865
412.055
413.909
413.601
413.694
412.835
413.139
412.384
413.151
412.575
413.965
413.662
416.106
416.578
421.914
426.369
445.332
425.411
337.474
365.769
380.999
389.88
397.424
402.251
407.764
410.986
415.802
418.011
422.651
424.001
428.847
429.344
434.907
434.499
441.94
440.537
454.345
442.605
)
;

boundaryField
{
    movingWall
    {
        type            fixedValue;
        value           uniform 493;
    }
    fixedWalls
    {
        type            fixedValue;
        value           uniform 293;
    }
    frontAndBack
    {
        type            empty;
    }
}


// ************************************************************************* //
