/*--------------------------------*- C++ -*----------------------------------*\
  =========                 |
  \\      /  F ield         | OpenFOAM: The Open Source CFD Toolbox
   \\    /   O peration     | Website:  https://openfoam.org
    \\  /    A nd           | Version:  8
     \\/     M anipulation  |
\*---------------------------------------------------------------------------*/
FoamFile
{
    version     2.0;
    format      ascii;
    class       volScalarField;
    location    "8.7";
    object      T;
}
// * * * * * * * * * * * * * * * * * * * * * * * * * * * * * * * * * * * * * //

dimensions      [0 0 0 1 0 0 0];

internalField   nonuniform List<scalar> 
400
(
293.793
295.327
296.793
298.252
299.739
301.217
302.608
303.83
304.819
305.527
305.915
305.947
305.596
304.841
303.681
302.141
300.286
298.227
296.1
294.018
295.435
300.135
304.656
309.192
313.822
318.38
322.57
326.132
328.899
330.766
331.659
331.517
330.287
327.933
324.452
319.909
314.469
308.425
302.161
296.005
297.176
305.2
312.929
320.689
328.546
336.12
342.874
348.425
352.588
355.278
356.445
356.032
353.969
350.178
344.607
337.289
328.431
318.491
308.134
297.948
299.007
310.483
321.545
332.6
343.593
353.847
362.628
369.563
374.578
377.706
378.984
378.39
375.829
371.128
364.086
354.564
342.659
328.907
314.322
299.934
300.901
315.906
330.356
344.654
358.476
370.807
380.828
388.353
393.564
396.711
397.971
397.385
394.825
389.992
382.437
371.675
357.436
340.096
321.029
302.053
302.841
321.404
339.217
356.557
372.685
386.251
396.539
403.757
408.474
411.212
412.311
411.879
409.775
405.58
398.583
387.835
372.414
352.106
328.402
304.347
304.813
326.925
347.994
368.025
385.733
399.521
409.041
415.117
418.776
420.789
421.612
421.402
420.021
416.996
411.436
401.958
386.814
364.67
336.489
306.818
306.814
332.447
356.598
378.812
397.203
410.15
418.01
422.392
424.732
425.924
426.446
426.462
425.86
424.195
420.545
413.264
399.836
377.396
345.35
309.461
308.836
337.908
364.854
388.655
406.797
417.961
423.603
426.156
427.248
427.724
427.994
428.192
428.249
427.824
426.115
421.467
410.861
389.818
355.075
312.291
310.902
343.374
372.851
397.474
414.378
423.08
426.388
427.344
427.473
427.438
427.527
427.83
428.328
428.825
428.753
426.693
419.516
401.417
365.705
315.382
312.998
348.711
380.172
404.945
419.922
425.901
427.144
426.946
426.468
426.14
426.117
426.447
427.146
428.169
429.237
429.348
425.695
411.687
377.138
318.964
315.17
354.049
387.35
411.415
423.739
426.98
426.666
425.81
425.044
424.611
424.537
424.838
425.544
426.719
428.367
429.999
429.524
420.227
389.097
323.562
317.493
359.453
393.514
416.265
425.793
426.821
425.639
424.541
423.716
423.299
423.22
423.483
424.095
425.155
426.882
429.281
431.312
426.79
401.137
330.052
319.979
364.608
399.815
420.498
427.003
426.245
424.621
423.475
422.7
422.342
422.284
422.535
423.07
423.91
425.386
427.828
431.486
431.303
412.711
339.501
322.745
370.707
404.841
422.926
426.819
425.149
423.637
422.666
422.018
421.709
421.67
421.925
422.473
423.143
424.288
426.219
430.554
433.846
423.259
352.712
326.687
375.701
410.178
425.313
427
424.914
423.495
422.523
421.862
421.515
421.46
421.653
422.257
422.812
423.764
424.923
429.087
434.63
432.304
369.651
328.826
383.274
413.86
425.523
425.971
424.172
423.057
422.411
422.041
421.826
421.971
422.062
422.665
422.929
423.823
424.242
427.738
434.006
439.512
389.072
336.874
387.084
416.688
426.35
427.338
426.479
425.665
424.882
424.592
424.016
424.103
423.636
424.054
423.63
424.491
424.323
427.39
432.667
444.813
408.825
332.789
392.996
413.639
420.863
423.469
423.679
424.151
423.522
423.985
423.269
424.034
423.325
424.539
423.88
425.877
425.575
429.89
432.556
449.017
427.09
338.731
368.433
384.302
393.514
401.277
406.214
411.818
415.062
419.919
422.099
426.751
428.028
432.859
433.223
438.723
438.07
445.335
443.419
456.825
444.266
)
;

boundaryField
{
    movingWall
    {
        type            fixedValue;
        value           uniform 493;
    }
    fixedWalls
    {
        type            fixedValue;
        value           uniform 293;
    }
    frontAndBack
    {
        type            empty;
    }
}


// ************************************************************************* //
