/*--------------------------------*- C++ -*----------------------------------*\
  =========                 |
  \\      /  F ield         | OpenFOAM: The Open Source CFD Toolbox
   \\    /   O peration     | Website:  https://openfoam.org
    \\  /    A nd           | Version:  8
     \\/     M anipulation  |
\*---------------------------------------------------------------------------*/
FoamFile
{
    version     2.0;
    format      ascii;
    class       volScalarField;
    location    "2.5";
    object      p;
}
// * * * * * * * * * * * * * * * * * * * * * * * * * * * * * * * * * * * * * //

dimensions      [0 2 -2 0 0 0 0];

internalField   nonuniform List<scalar> 
400
(
1.89309e-06
-0.00582676
-0.012965
-0.0184175
-0.0204353
-0.0182417
-0.0117771
-0.00148684
0.0118343
0.0271462
0.0432415
0.0588202
0.072576
0.0833059
0.0900503
0.0922645
0.0900233
0.0842413
0.076878
0.0710644
0.0057793
-0.000220131
-0.00580621
-0.00954509
-0.0106017
-0.00843569
-0.002973
0.00547106
0.0162999
0.0287087
0.0417469
0.0543832
0.0655837
0.0744073
0.0801177
0.0823132
0.0810747
0.0770522
0.0712714
0.0653151
0.0133333
0.00503161
-0.000997581
-0.00442559
-0.00527563
-0.00326683
0.00159929
0.00902448
0.018499
0.0293463
0.0407625
0.0518668
0.0617658
0.0696336
0.0748043
0.0768754
0.0758389
0.0720832
0.0658027
0.0575326
0.0201375
0.00869381
0.00122355
-0.00267099
-0.00372475
-0.00188814
0.00272827
0.00978145
0.0187772
0.029092
0.039989
0.0506512
0.0602301
0.0679132
0.0730004
0.0749987
0.073763
0.0694533
0.0616001
0.0500995
0.0245
0.00977092
0.000587424
-0.00398937
-0.0053048
-0.00351006
0.00117183
0.00833149
0.0174588
0.0279459
0.0390819
0.050067
0.060046
0.0681622
0.0736235
0.0757948
0.074366
0.0692868
0.0595225
0.044534
0.0251759
0.00714781
-0.00380441
-0.00905968
-0.0105147
-0.0085026
-0.00335958
0.00442648
0.0143103
0.0256759
0.0378107
0.0499003
0.0610452
0.0703002
0.0767318
0.079514
0.0781359
0.0723305
0.0605362
0.0418869
0.0210914
-0.000264617
-0.0129369
-0.0187118
-0.0200324
-0.0174165
-0.011321
-0.00232248
0.00898749
0.0219731
0.0359065
0.0499413
0.0631091
0.0743423
0.082519
0.0865666
0.0857177
0.0794441
0.0656173
0.0430685
0.0111406
-0.0136205
-0.0278775
-0.0338568
-0.0346061
-0.0308601
-0.0232155
-0.0123478
0.00110207
0.016481
0.0330495
0.0499305
0.0660803
0.0802869
0.0911978
0.0974271
0.0978674
0.0916331
0.0758933
0.0491134
-0.00596953
-0.0342689
-0.0498725
-0.0555511
-0.0550928
-0.0495172
-0.0395961
-0.0261159
-0.00975978
0.00882023
0.0288981
0.0495905
0.0697945
0.0881516
0.103045
0.112698
0.115548
0.110189
0.0928313
0.0614084
-0.0318597
-0.0638786
-0.0804194
-0.0850097
-0.0824227
-0.074081
-0.0609836
-0.0440393
-0.0239542
-0.00133957
0.0231429
0.0486582
0.0740927
0.0979693
0.118393
0.133123
0.139986
0.136815
0.118438
0.081931
-0.06867
-0.104606
-0.121347
-0.123593
-0.117518
-0.105129
-0.0877209
-0.0663282
-0.0416397
-0.0141582
0.0156029
0.0469505
0.078853
0.109791
0.137621
0.159583
0.172724
0.173775
0.155518
0.113568
-0.119405
-0.15936
-0.174917
-0.172759
-0.16115
-0.142931
-0.119761
-0.0927796
-0.06258
-0.0294502
0.00637057
0.044471
0.0840526
0.1237
0.161134
0.193083
0.215666
0.224074
0.208048
0.16063
-0.188631
-0.232244
-0.243941
-0.23395
-0.213696
-0.187157
-0.156375
-0.122503
-0.0859003
-0.0464746
-0.00401685
0.0415365
0.0898398
0.139827
0.189317
0.234687
0.271072
0.291662
0.28174
0.229773
-0.283977
-0.329307
-0.331834
-0.308282
-0.27471
-0.236442
-0.195766
-0.153612
-0.109842
-0.0637472
-0.0144399
0.0388614
0.0965523
0.158275
0.222372
0.285286
0.341395
0.381573
0.384912
0.331832
-0.41932
-0.459673
-0.442352
-0.395794
-0.342131
-0.287741
-0.234617
-0.182931
-0.131611
-0.0789864
-0.0232155
0.0374737
0.104552
0.178836
0.25986
0.344969
0.428615
0.499698
0.529673
0.48539
-0.620533
-0.636745
-0.578678
-0.494194
-0.411242
-0.335659
-0.267781
-0.205978
-0.147537
-0.0893839
-0.028427
0.0383473
0.113806
0.200471
0.299974
0.412024
0.533028
0.651774
0.732771
0.722395
-0.935925
-0.878516
-0.741742
-0.597949
-0.474393
-0.37266
-0.288869
-0.217763
-0.153954
-0.0924644
-0.0287178
0.0416951
0.123263
0.220717
0.338925
0.482154
0.651996
0.841341
1.01527
1.0975
-1.47642
-1.20663
-0.920503
-0.691388
-0.517305
-0.387544
-0.290061
-0.213337
-0.148124
-0.0872158
-0.024578
0.0454571
0.128937
0.233071
0.367103
0.542678
0.771293
1.05932
1.40329
1.73014
-2.53965
-1.63055
-1.04444
-0.710959
-0.49575
-0.352093
-0.254531
-0.183583
-0.126169
-0.0735954
-0.0192694
0.0427865
0.119212
0.218782
0.354812
0.547983
0.826392
1.23658
1.91168
2.92419
-4.36666
-2.04463
-0.973542
-0.563181
-0.357846
-0.240146
-0.170119
-0.123783
-0.0874815
-0.0535106
-0.0166549
0.0276602
0.0846069
0.161729
0.272411
0.442098
0.718218
1.22571
2.41103
4.84853
)
;

boundaryField
{
    movingWall
    {
        type            zeroGradient;
    }
    fixedWalls
    {
        type            zeroGradient;
    }
    frontAndBack
    {
        type            empty;
    }
}


// ************************************************************************* //
