/*--------------------------------*- C++ -*----------------------------------*\
  =========                 |
  \\      /  F ield         | OpenFOAM: The Open Source CFD Toolbox
   \\    /   O peration     | Website:  https://openfoam.org
    \\  /    A nd           | Version:  8
     \\/     M anipulation  |
\*---------------------------------------------------------------------------*/
FoamFile
{
    version     2.0;
    format      ascii;
    class       volScalarField;
    location    "2.5";
    object      T;
}
// * * * * * * * * * * * * * * * * * * * * * * * * * * * * * * * * * * * * * //

dimensions      [0 0 0 1 0 0 0];

internalField   nonuniform List<scalar> 
400
(
293.489
294.477
295.532
296.702
297.971
299.264
300.491
301.58
302.478
303.145
303.546
303.647
303.419
302.841
301.906
300.635
299.085
297.358
295.578
293.844
294.522
297.599
300.912
304.609
308.603
312.612
316.327
319.525
322.069
323.869
324.853
324.957
324.123
322.302
319.479
315.699
311.111
305.987
300.689
295.515
295.67
301.049
306.848
313.294
320.147
326.849
332.87
337.894
341.77
344.424
345.803
345.844
344.462
341.555
337.042
330.92
323.367
314.814
305.905
297.205
296.938
304.821
313.311
322.641
332.305
341.405
349.242
355.518
360.191
363.307
364.907
364.968
363.371
359.908
354.323
346.417
336.229
324.258
311.504
298.995
298.303
308.843
320.145
332.347
344.528
355.415
364.246
370.908
375.627
378.695
380.321
380.555
379.248
376.044
370.409
361.751
349.698
334.559
317.694
300.947
299.743
313.034
327.169
342.05
356.185
367.936
376.656
382.648
386.576
389.06
390.506
391.049
390.518
388.416
383.905
375.872
363.226
345.628
324.546
303.08
301.237
317.314
334.198
351.38
366.653
378.102
385.495
389.814
392.266
393.781
394.909
395.839
396.399
396.012
393.617
387.6
375.959
357.151
332.077
305.385
302.774
321.655
341.116
360.012
375.382
385.288
390.283
392.251
392.898
393.314
394.09
395.424
397.167
398.752
399.046
396.106
387.058
368.714
340.341
307.858
304.321
325.886
347.615
367.583
381.974
389.216
391.125
390.534
389.409
388.809
389.267
390.962
393.785
397.263
400.356
401.05
395.857
379.825
349.42
310.512
305.939
330.284
353.958
374.013
386.229
389.981
388.609
385.662
383.035
381.609
381.806
383.768
387.442
392.505
398.138
402.513
401.927
389.924
359.335
313.418
307.474
334.121
359.247
378.781
388.073
388.005
383.602
378.755
374.991
372.957
372.946
375.062
379.308
385.525
393.193
400.882
405.115
398.461
369.963
316.797
309.253
338.686
364.749
382.506
387.909
383.938
377.058
370.873
366.34
363.91
363.737
365.904
370.447
377.352
386.418
396.75
405.521
404.991
380.995
321.156
310.723
341.827
368.361
384.03
385.567
378.402
369.914
362.95
357.988
355.343
355.053
357.195
361.81
368.968
378.752
390.845
403.456
409.23
391.958
327.338
313.048
346.846
372.944
385.234
382.502
372.646
363.171
355.838
350.744
348.037
347.673
349.732
354.256
361.306
371.17
384.013
399.415
411.083
402.268
336.359
314.077
349.255
374.664
383.744
377.751
366.703
357.352
350.325
345.496
342.896
342.492
344.387
348.675
355.31
364.705
377.25
394.089
410.649
411.333
348.961
318.726
355.027
378.42
383.413
374.722
363.407
354.619
348.12
343.708
341.309
340.884
342.457
346.28
352.115
360.548
371.773
388.457
408.249
418.659
365.045
316.998
356.89
377.942
380.035
371.131
361.583
354.575
349.661
346.476
344.782
344.695
345.893
348.962
353.377
360.262
369.214
384.045
404.594
423.975
383.344
327.614
363.044
381.13
381.85
375.473
369.016
364.146
360.563
358.429
356.94
356.837
357.091
359.007
361.294
366.075
371.954
383.569
401.392
427.542
401.79
317.545
361.393
375.589
378.786
378.421
376.607
375.607
374.14
374.023
373.244
374.085
374.013
376.008
376.922
380.833
383.913
392.689
403.433
431.337
418.879
332.144
354.61
367.454
375.213
382.052
386.583
391.844
395.079
399.818
402.209
406.863
408.545
413.49
414.526
420.336
420.864
428.938
429.444
444.688
436.105
)
;

boundaryField
{
    movingWall
    {
        type            fixedValue;
        value           uniform 493;
    }
    fixedWalls
    {
        type            fixedValue;
        value           uniform 293;
    }
    frontAndBack
    {
        type            empty;
    }
}


// ************************************************************************* //
