/*--------------------------------*- C++ -*----------------------------------*\
  =========                 |
  \\      /  F ield         | OpenFOAM: The Open Source CFD Toolbox
   \\    /   O peration     | Website:  https://openfoam.org
    \\  /    A nd           | Version:  8
     \\/     M anipulation  |
\*---------------------------------------------------------------------------*/
FoamFile
{
    version     2.0;
    format      ascii;
    class       volScalarField;
    location    "0.015";
    object      phi;
}
// * * * * * * * * * * * * * * * * * * * * * * * * * * * * * * * * * * * * * //

dimensions      [1 2 -3 0 0 -1 0];

internalField   nonuniform List<scalar> 
379000
(
0
0
0
0
0
0
0
0
0
0
0
0
0
0
0
0
0
0
0
0
0
0
0
0
0
0
0
0
0
0
0
0
0
0
0
0
0
0
0
0
0
0
0
0
0
0
0
0
0
0
0
0
0
0
0
0
0
0
0
0
0
0
0
0
0
0
0
0
0
0
0
0
0
0
0
0
0
0
0
0
0
0
0
0
0
0
0
0
0
0
0
0
0
0
0
0
0
0
0
0
0
0
0
0
0
0
0
0
0
0
0
0
0
0
0
0
0
0
0
0
0
0
0
0
0
0
0
0
0
0
0
0
0
0
0
0
0
0
0
0
0
0
0
0
0
0
0
0
0
0
0
0
0
0
0
0
0
0
0
0
0
0
0
0
0
0
0
0
0
0
0
0
0
0
0
0
0
0
0
0
0
0
0
0
0
0
0
0
0
0
0
0
0
0
0
0
0
0
0
0
0
0
0
0
0
0
0
0
0
0
0
0
0
0
0
0
0
0
0
0
0
0
0
0
0
0
0
0
0
0
0
0
0
0
0
0
0
0
0
0
0
0
0
0
0
0
0
0
0
0
0
0
0
0
0
0
0
0
0
0
0
0
0
0
0
0
0
0
0
0
0
0
0
0
0
0
0
0
0
0
0
0
0
0
0
0
0
0
0
0
0
0
0
0
0
0
0
0
0
0
0
0
0
0
0
0
0
0
0
0
0
0
0
0
0
0
0
0
0
0
0
0
0
0
0
0
0
0
0
0
0
0
0
0
0
0
0
0
0
0
0
0
0
0
0
0
0
0
0
0
0
0
0
0
0
0
0
0
0
0
0
0
0
0
0
0
0
0
0
0
0
0
0
0
0
0
0
0
0
0
0
0
0
0
0
0
0
0
0
0
0
0
0
0
0
0
0
0
0
0
0
0
0
0
0
0
0
0
0
0
0
0
0
0
0
0
0
0
0
0
0
0
0
0
0
0
0
0
0
0
0
0
0
0
0
0
0
0
0
0
0
0
0
0
0
0
0
0
0
0
0
0
0
0
0
0
0
0
0
0
0
0
0
0
0
0
0
0
0
0
0
0
0
0
0
0
0
0
0
0
0
0
0
0
0
0
0
0
0
0
0
0
0
0
0
0
0
0
0
0
0
0
0
0
0
0
0
0
0
0
0
0
0
0
0
0
0
0
0
0
0
0
0
0
0
0
0
0
0
0
0
0
0
0
0
0
0
0
0
0
0
0
0
0
0
0
0
0
0
0
0
0
0
0
0
0
0
0
0
0
0
0
0
0
0
0
0
0
0
0
0
0
0
0
0
0
0
0
0
0
0
0
0
0
0
0
0
0
0
0
0
0
0
0
0
0
0
0
0
0
0
0
0
0
0
0
0
0
0
0
0
0
0
0
0
0
0
0
0
0
0
0
0
0
0
0
0
0
0
0
0
0
0
0
0
0
0
0
0
0
0
0
0
0
0
0
0
0
0
0
0
0
0
0
0
0
0
0
0
0
0
0
0
0
0
0
0
0
0
0
0
0
0
0
0
0
0
0
0
0
0
0
0
0
0
0
0
0
0
0
0
0
0
0
0
0
0
0
0
0
0
0
0
0
0
0
0
0
0
0
0
0
0
0
0
0
0
0
0
0
0
0
0
0
0
0
0
0
0
0
0
0
0
0
0
0
0
0
0
0
0
0
0
0
0
0
0
0
0
0
0
0
0
0
0
0
0
0
0
0
0
0
0
0
0
0
0
0
0
0
0
0
0
0
0
0
0
0
0
0
0
0
0
0
0
0
0
0
0
0
0
0
0
0
0
0
0
0
0
0
0
0
0
0
0
0
0
0
0
0
0
0
0
0
0
0
0
0
0
0
0
0
0
0
0
0
0
0
0
0
0
0
0
0
0
0
0
0
0
0
0
0
0
0
0
0
0
0
0
0
0
0
0
0
0
0
0
0
0
0
0
0
0
0
0
0
0
0
0
0
0
0
0
0
0
0
0
0
0
0
0
0
0
0
0
0
0
0
0
0
0
0
0
0
0
0
0
0
0
0
0
0
0
0
0
0
0
0
0
0
0
0
0
0
0
0
0
0
0
0
0
0
0
0
0
0
0
0
0
0
0
0
0
0
0
0
0
0
0
0
0
0
0
0
0
0
0
0
0
0
0
0
0
0
0
0
0
0
0
0
0
0
0
0
0
0
0
0
0
0
0
0
0
0
0
0
0
0
0
0
0
0
0
0
0
0
0
0
0
0
0
0
0
0
0
0
0
0
0
0
-4799.5
-4813.85
-4842.05
-4884.22
-4940.38
-5010.51
-5094.58
-5192.56
-5304.39
-5430.01
-5569.34
-5722.25
-5888.6
-6068.23
-6260.92
-6466.43
-6684.45
-6914.62
-7156.54
-7409.73
-7673.63
-7947.64
-8231.03
-8523.03
-8822.76
-9129.25
-9441.43
-9758.15
-10078.2
-10400.1
-10722.5
-11044
-11362.8
-11677.4
-11985.9
-12286.8
-12578
-12857.9
-13124.7
-13376.6
-13611.8
-13828.7
-14025.7
-14201.5
-14354.6
-14483.8
-14588.3
-14667.2
-14719.8
-14746.1
-14383.9
-14426.9
-14511.5
-14638
-14806.4
-15016.8
-15269
-15562.9
-15898.5
-16275.3
-16693.4
-17152.1
-17651.3
-18190.3
-18768.5
-19385.2
-20039.5
-20730.3
-21456.4
-22216.4
-23008.6
-23831.1
-24681.9
-25558.6
-26458.6
-27379
-28316.5
-29267.7
-30228.9
-31196
-32164.6
-33130.3
-34088.3
-35033.5
-35960.8
-36864.8
-37740.2
-38581.6
-39383.5
-40140.6
-40847.8
-41500
-42092.4
-42620.8
-43081.1
-43469.9
-43784
-44021.1
-44179.4
-44257.9
-23924.7
-23996.1
-24137
-24347.7
-24628.5
-24979.1
-25399.4
-25889.3
-26448.5
-27076.8
-27773.6
-28538.4
-29370.6
-30269.3
-31233.5
-32262
-33353.3
-34505.6
-35716.9
-36984.9
-38306.8
-39679.6
-41099.7
-42563.3
-44065.9
-45602.8
-47168.6
-48757.6
-50363.4
-51979.4
-53598.3
-55212.5
-56814
-58394.4
-59945.2
-61457.3
-62921.8
-64329.5
-65671.4
-66938.5
-68122.2
-69213.9
-70205.8
-71090.5
-71861.3
-72512.3
-73038.3
-73435.2
-73700
-73830.7
-33392.1
-33491.9
-33689
-33984
-34377
-34867.7
-35456.1
-36142
-36924.9
-37804.6
-38780.4
-39851.5
-41017.1
-42276.1
-43627
-45068.2
-46597.5
-48212.7
-49911
-51688.9
-53542.9
-55468.6
-57461.2
-59515.2
-61624.4
-63782.3
-65981.3
-68213.3
-70469.6
-72740.7
-75016.5
-77286.2
-79538.7
-81762.1
-83944.2
-86072.5
-88134.3
-90116.5
-92006.6
-93791.6
-95459.3
-96997.9
-98396
-99643.1
-100730
-101648
-102389
-102949
-103322
-103506
-42756.7
-42884.9
-43138.2
-43517.3
-44022.4
-44653.2
-45409.6
-46291.3
-47298
-48429.2
-49684.1
-51061.9
-52561.5
-54181.4
-55919.9
-57774.9
-59743.9
-61823.9
-64011.4
-66302.1
-68691.4
-71173.8
-73743.1
-76392.3
-79113.8
-81898.7
-84737.7
-87620.3
-90535.1
-93470.1
-96412.1
-99347.3
-102261
-105138
-107963
-110719
-113390
-115958
-118408
-120722
-122884
-124880
-126694
-128312
-129723
-130914
-131877
-132603
-133087
-133325
-51989.3
-52145.7
-52455.1
-52918.2
-53535.2
-54305.9
-55230.2
-56307.7
-57538.1
-58920.8
-60455.1
-62139.9
-63973.9
-65955.6
-68082.9
-70353.3
-72763.8
-75311
-77990.5
-80797.4
-83726.1
-86769.9
-89921.4
-93172.2
-96512.9
-99932.9
-103421
-106963
-110547
-114157
-117777
-121391
-124980
-128525
-132006
-135405
-138699
-141869
-144893
-147751
-150423
-152889
-155131
-157132
-158876
-160349
-161540
-162439
-163038
-163332
-61060.4
-61245.1
-61610.4
-62157.3
-62886
-63796.4
-64888.3
-66161.4
-67615.4
-69249.7
-71063.4
-73055.5
-75224.6
-77569
-80086.3
-82773.8
-85628.1
-88645.1
-91820.1
-95147.3
-98620.2
-102231
-105972
-109831
-113800
-117864
-122011
-126226
-130492
-134791
-139104
-143412
-147692
-151922
-156079
-160138
-164075
-167864
-171481
-174901
-178100
-181053
-183739
-186137
-188227
-189994
-191422
-192500
-193219
-193571
-69940.9
-70153.7
-70574.7
-71205.2
-72045.4
-73095.1
-74354.3
-75822.7
-77500
-79385.7
-81479
-83778.7
-86283.5
-88991.4
-91900.1
-95006.5
-98306.9
-101797
-105471
-109323
-113346
-117531
-121868
-126346
-130952
-135672
-140491
-145391
-150354
-155358
-160382
-165402
-170394
-175330
-180183
-184925
-189527
-193959
-198192
-202195
-205942
-209402
-212551
-215363
-217816
-219889
-221565
-222831
-223674
-224088
-78601.6
-78842.4
-79318.9
-80032.7
-80983.9
-82172.5
-83598.4
-85261.7
-87162
-89298.8
-91671.5
-94279
-97119.9
-100192
-103494
-107021
-110770
-114737
-118914
-123297
-127875
-132641
-137583
-142689
-147944
-153333
-158838
-164440
-170117
-175845
-181600
-187355
-193081
-198747
-204322
-209773
-215066
-220167
-225042
-229656
-233975
-237967
-241601
-244848
-247681
-250076
-252014
-253477
-254452
-254931
-87013.6
-87282.2
-87813.9
-88610.5
-89672.1
-90999
-92591.1
-94448.6
-96571.2
-98958.7
-101611
-104526
-107703
-111141
-114836
-118786
-122987
-127433
-132118
-137036
-142178
-147533
-153089
-158834
-164751
-170823
-177030
-183351
-189762
-196237
-202746
-209261
-215747
-222171
-228497
-234687
-240702
-246503
-252050
-257304
-262226
-266778
-270923
-274629
-277864
-280601
-282815
-284487
-285602
-286150
-95147.9
-95444.1
-96030.8
-96909.6
-98081
-99545.2
-101303
-103353
-105697
-108335
-111265
-114488
-118002
-121805
-125895
-130270
-134924
-139854
-145052
-150511
-156223
-162176
-168357
-174752
-181345
-188115
-195043
-202103
-209270
-216515
-223805
-231107
-238385
-245598
-252708
-259671
-266443
-272979
-279235
-285164
-290722
-295866
-300554
-304746
-308408
-311507
-314016
-315911
-317176
-317797
-102976
-103300
-103941
-104901
-106181
-107782
-109703
-111946
-114510
-117397
-120604
-124134
-127984
-132153
-136639
-141439
-146550
-151966
-157681
-163688
-169977
-176537
-183354
-190412
-197695
-205182
-212849
-220671
-228618
-236659
-244759
-252881
-260983
-269022
-276952
-284727
-292296
-299608
-306612
-313256
-319490
-325263
-330528
-335241
-339358
-342845
-345669
-347803
-349227
-349928
-110470
-110820
-111515
-112556
-113944
-115680
-117764
-120197
-122980
-126113
-129597
-133432
-137617
-142152
-147034
-152261
-157830
-163736
-169973
-176533
-183406
-190582
-198046
-205782
-213771
-221992
-230420
-239026
-247780
-256647
-265589
-274565
-283528
-292432
-301226
-309856
-318266
-326400
-334198
-341603
-348557
-355002
-360885
-366154
-370761
-374664
-377827
-380218
-381815
-382602
-117601
-117978
-118726
-119846
-121341
-123210
-125454
-128076
-131075
-134454
-138212
-142350
-146869
-151768
-157046
-162701
-168730
-175128
-181890
-189009
-196474
-204275
-212397
-220824
-229537
-238511
-247722
-257138
-266728
-276453
-286271
-296139
-306005
-315819
-325522
-335055
-344357
-353363
-362008
-370225
-377949
-385115
-391662
-397529
-402664
-407017
-410545
-413215
-414999
-415878
-124341
-124745
-125545
-126743
-128342
-130343
-132746
-135553
-138766
-142387
-146417
-150856
-155707
-160968
-166641
-172723
-179212
-186105
-193396
-201078
-209142
-217578
-226370
-235502
-244954
-254702
-264719
-274973
-285428
-296045
-306779
-317580
-328394
-339165
-349829
-360320
-370570
-380506
-390055
-399142
-407693
-415635
-422897
-429412
-435117
-439958
-443884
-446856
-448843
-449824
-130665
-131094
-131945
-133220
-134922
-137051
-139609
-142599
-146023
-149882
-154180
-158917
-164096
-169718
-175783
-182291
-189240
-196628
-204450
-212700
-221370
-230449
-239922
-249773
-259982
-270525
-281372
-292491
-303845
-315390
-327079
-338859
-350670
-362451
-374132
-385641
-396900
-407830
-418349
-428371
-437814
-446594
-454631
-461848
-468174
-473544
-477904
-481207
-483416
-484507
-136544
-136999
-137899
-139249
-141051
-143306
-146016
-149185
-152815
-156909
-161470
-166500
-172004
-177982
-184436
-191367
-198775
-206658
-215013
-223834
-233115
-242844
-253009
-263593
-274576
-285934
-297637
-309650
-321936
-334448
-347136
-359942
-372804
-385652
-398413
-411004
-423342
-435337
-446897
-457928
-468335
-478023
-486901
-494883
-501886
-507836
-512670
-516334
-518787
-520001
-141954
-142433
-143381
-144804
-146703
-149080
-151938
-155281
-159112
-163435
-168254
-173572
-179395
-185724
-192563
-199913
-207777
-216154
-225041
-234435
-244330
-254717
-265583
-276913
-288687
-300880
-313463
-326402
-339654
-353174
-366906
-380790
-394759
-408738
-422644
-436390
-449882
-463021
-475704
-487824
-499276
-509951
-519748
-528564
-536308
-542894
-548249
-552311
-555032
-556380
-146869
-147371
-148366
-149859
-151851
-154346
-157348
-160859
-164885
-169431
-174501
-180100
-186235
-192908
-200125
-207890
-216205
-225072
-234490
-244457
-254969
-266017
-277593
-289680
-302260
-315309
-328798
-342691
-356946
-371515
-386340
-401357
-416493
-431668
-446793
-461772
-476502
-490871
-504766
-518067
-530654
-542406
-553205
-562937
-571495
-578781
-584710
-589211
-592229
-593726
-151265
-151789
-152829
-154388
-156470
-159079
-162218
-165891
-170105
-174866
-180179
-186051
-192489
-199498
-207086
-215257
-224017
-233368
-243312
-253850
-264979
-276693
-288984
-301838
-315238
-329162
-343580
-358458
-373752
-389412
-405379
-421585
-437953
-454397
-470819
-487116
-503173
-518868
-534074
-548657
-562481
-575410
-587308
-598046
-607500
-615559
-622123
-627110
-630457
-632119
-155119
-155664
-156746
-158369
-160536
-163252
-166522
-170350
-174744
-179711
-185257
-191392
-198122
-205458
-213405
-221973
-231168
-240995
-251460
-262564
-274307
-286687
-299696
-313325
-327558
-342373
-357743
-373634
-390002
-406797
-423957
-441411
-459079
-476866
-494670
-512376
-529859
-546984
-563610
-579587
-594762
-608979
-622085
-633931
-644376
-653289
-660558
-666086
-669798
-671644
-158409
-158974
-160095
-161778
-164025
-166843
-170235
-174210
-178774
-183935
-189704
-196089
-203101
-210749
-219044
-227996
-237615
-247908
-258883
-270545
-282897
-295939
-309667
-324075
-339149
-354870
-371212
-388143
-405620
-423592
-441996
-460759
-479795
-499006
-518280
-537493
-556509
-575179
-593345
-610840
-627491
-643122
-657558
-670628
-682169
-692032
-700085
-706214
-710335
-712387
-161115
-161698
-162856
-164593
-166915
-169826
-173334
-177444
-182168
-187513
-193490
-200112
-207390
-215336
-223964
-233285
-243312
-254056
-265528
-277736
-290688
-304386
-318830
-334017
-349937
-366574
-383906
-401901
-420519
-439709
-459408
-479541
-500017
-520734
-541572
-562397
-583060
-603398
-623235
-642385
-660652
-677837
-693740
-708164
-720923
-731842
-740768
-747570
-752147
-754430
-163218
-163818
-165008
-166796
-169185
-172183
-175795
-180031
-184900
-190415
-196586
-203429
-210956
-219182
-228124
-237795
-248213
-259390
-271342
-284082
-297618
-311960
-327112
-343074
-359840
-377400
-395734
-414813
-434601
-455048
-476091
-497653
-519642
-541950
-564449
-586996
-609429
-631568
-653219
-674173
-694211
-713105
-730629
-746555
-760667
-772764
-782667
-790222
-795312
-797853
-164700
-165315
-166535
-168367
-170817
-173891
-177597
-181946
-186948
-192616
-198965
-206009
-213766
-222252
-231486
-241486
-252271
-263860
-276271
-289520
-303623
-318593
-334438
-351165
-368772
-387255
-406597
-426776
-447758
-469495
-491927
-514977
-538551
-562534
-586795
-611179
-635511
-659594
-683213
-706135
-728113
-748890
-768205
-785798
-801419
-814832
-825829
-834230
-839895
-842727
-165547
-166174
-167420
-169291
-171793
-174933
-178722
-183169
-188288
-194092
-200598
-207824
-215788
-224510
-234011
-244314
-255441
-267414
-280257
-293991
-308636
-324210
-340728
-358203
-376639
-396037
-416388
-437675
-459867
-482923
-506785
-531376
-556603
-582348
-608472
-634811
-661176
-687354
-713106
-738174
-762279
-785129
-806427
-825872
-843174
-858060
-870284
-879636
-885949
-889110
-165745
-166383
-167649
-169552
-172098
-175294
-179151
-183682
-188900
-194821
-201463
-208846
-216992
-225923
-235663
-246239
-257676
-270002
-283245
-297431
-312586
-328735
-345899
-364096
-383341
-403639
-424990
-447383
-470795
-495190
-520513
-546694
-573637
-601224
-629311
-657725
-686263
-714693
-742754
-770158
-796592
-821726
-845217
-866721
-885901
-902436
-916039
-926461
-933506
-937037
-165284
-165930
-167212
-169140
-171719
-174959
-178871
-183468
-188766
-194782
-201536
-209051
-217349
-226458
-236405
-247219
-258931
-271573
-285178
-299777
-315404
-332089
-349862
-368749
-388771
-409944
-432275
-455763
-480392
-506135
-532943
-560751
-589466
-618970
-649116
-679721
-710573
-741419
-771973
-801916
-830897
-858541
-884459
-908252
-929527
-947911
-963064
-974693
-982564
-986515
-164156
-164806
-166100
-168044
-170647
-173918
-177868
-182513
-187870
-193957
-200797
-208414
-216835
-226088
-236204
-247218
-259164
-272078
-285999
-300966
-317018
-334194
-352530
-372062
-392820
-414829
-438108
-462666
-488497
-515583
-543885
-573345
-603875
-635361
-667652
-700563
-733865
-767291
-800527
-833221
-864981
-895384
-923982
-950316
-973930
-994386
-1.01128e+06
-1.02427e+06
-1.03308e+06
-1.0375e+06
-162354
-163007
-164306
-166259
-168874
-172161
-176133
-180807
-186199
-192332
-199229
-206917
-215424
-224783
-235029
-246198
-258331
-271469
-285655
-300937
-317359
-334968
-353810
-373931
-395370
-418165
-442345
-467932
-494932
-523339
-553128
-584248
-616621
-650137
-684649
-719965
-755849
-792015
-828124
-863788
-898571
-931993
-963545
-992698
-1.01892e+06
-1.0417e+06
-1.06055e+06
-1.07508e+06
-1.08494e+06
-1.0899e+06
-159876
-160529
-161827
-163780
-166395
-169684
-173660
-178340
-183744
-189895
-196818
-204541
-213097
-222521
-232851
-244127
-256395
-269700
-284094
-299627
-316355
-334331
-353612
-374252
-396304
-419817
-444834
-471390
-499508
-529195
-560439
-593205
-627427
-663002
-699789
-737595
-776177
-815234
-854401
-893254
-931308
-968025
-1.00282e+06
-1.03509e+06
-1.06421e+06
-1.08958e+06
-1.11064e+06
-1.1269e+06
-1.13795e+06
-1.14352e+06
-156724
-157373
-158664
-160607
-163209
-166484
-170444
-175109
-180499
-186637
-193552
-201275
-209839
-219282
-229646
-240976
-253320
-266732
-281266
-296981
-313940
-332205
-351843
-372920
-395500
-419646
-445417
-472862
-502022
-532921
-565566
-599937
-635984
-673619
-712707
-753062
-794437
-836516
-878913
-921166
-962740
-1.00303e+06
-1.04138e+06
-1.07708e+06
-1.10942e+06
-1.13768e+06
-1.16121e+06
-1.17941e+06
-1.1918e+06
-1.19807e+06
-152899
-153541
-154820
-156743
-159319
-162563
-166488
-171113
-176460
-182555
-189427
-197109
-205636
-215050
-225395
-236720
-249078
-262526
-277127
-292945
-310050
-328516
-348417
-369832
-392838
-417513
-443932
-472162
-502262
-534277
-568235
-604136
-641951
-681609
-722991
-765918
-810145
-855348
-901121
-946967
-992298
-1.03644e+06
-1.07865e+06
-1.11811e+06
-1.154e+06
-1.18547e+06
-1.21175e+06
-1.23213e+06
-1.24604e+06
-1.25308e+06
-148411
-149043
-150300
-152193
-154731
-157926
-161794
-166354
-171631
-177649
-184440
-192038
-200482
-209814
-220083
-231340
-243643
-257053
-271638
-287471
-304629
-323192
-343249
-364888
-388200
-413279
-440217
-469099
-500008
-533010
-568156
-605473
-644955
-686555
-730173
-775648
-822741
-871127
-920382
-969978
-1.01928e+06
-1.06753e+06
-1.11389e+06
-1.15745e+06
-1.19723e+06
-1.23225e+06
-1.26159e+06
-1.28441e+06
-1.30001e+06
-1.30792e+06
-143268
-143886
-145117
-146969
-149453
-152581
-156371
-160841
-166016
-171923
-178594
-186064
-194375
-203571
-213702
-224824
-236997
-250288
-264769
-280520
-297625
-316174
-336263
-357995
-381474
-406810
-434111
-463486
-495038
-528858
-565027
-603597
-644594
-687999
-733739
-781676
-831586
-883150
-935935
-989385
-1.04281e+06
-1.0954e+06
-1.14619e+06
-1.19415e+06
-1.23816e+06
-1.27707e+06
-1.30979e+06
-1.3353e+06
-1.3528e+06
-1.36168e+06
-137486
-138087
-139283
-141084
-143500
-146543
-150231
-154584
-159627
-165387
-171897
-179194
-187320
-196321
-206250
-217165
-229130
-242215
-256497
-272061
-288998
-307407
-327393
-349071
-372558
-397980
-425463
-455138
-487130
-521561
-558536
-598145
-640444
-685450
-733126
-783362
-835959
-890614
-946893
-1.00422e+06
-1.06187e+06
-1.11894e+06
-1.17439e+06
-1.22703e+06
-1.27558e+06
-1.3187e+06
-1.35511e+06
-1.38359e+06
-1.40317e+06
-1.41313e+06
-131083
-131663
-132817
-134556
-136888
-139828
-143392
-147601
-152479
-158055
-164363
-171439
-179327
-188074
-197734
-208368
-220041
-232827
-246808
-262073
-278718
-296851
-316585
-338045
-361362
-386676
-414132
-443882
-476075
-510861
-548378
-588748
-632069
-678397
-727734
-780012
-835066
-892618
-952247
-1.01337e+06
-1.07522e+06
-1.13684e+06
-1.19708e+06
-1.2546e+06
-1.30795e+06
-1.35557e+06
-1.39595e+06
-1.42766e+06
-1.44952e+06
-1.46065e+06
-124081
-124635
-125741
-127406
-129640
-132458
-135875
-139912
-144594
-149949
-156012
-162819
-170414
-178845
-188167
-198442
-209738
-222130
-235703
-250549
-266771
-284481
-303801
-324864
-347814
-372804
-399997
-429563
-461678
-496518
-534254
-575046
-619032
-666313
-716941
-770892
-828049
-888171
-950864
-1.01555e+06
-1.08144e+06
-1.14753e+06
-1.21256e+06
-1.27505e+06
-1.33335e+06
-1.38569e+06
-1.43027e+06
-1.46543e+06
-1.48973e+06
-1.50214e+06
-116504
-117030
-118080
-119660
-121782
-124458
-127705
-131543
-135997
-141095
-146869
-153358
-160605
-168658
-177573
-187410
-198240
-210138
-223192
-237496
-253156
-270288
-289021
-309496
-331865
-356294
-382961
-412055
-443773
-478318
-515895
-556700
-600913
-648685
-700119
-755248
-814011
-876216
-941512
-1.00935e+06
-1.07893e+06
-1.1492e+06
-1.21884e+06
-1.28621e+06
-1.34947e+06
-1.4066e+06
-1.45553e+06
-1.49427e+06
-1.52115e+06
-1.5349e+06
-108382
-108877
-109863
-111348
-113343
-115860
-118914
-122526
-126720
-131523
-136968
-143091
-149935
-157547
-165983
-175304
-185577
-196882
-209302
-222936
-237891
-254284
-272250
-291933
-313493
-337106
-362962
-391264
-422230
-456088
-493070
-533410
-577330
-625030
-676669
-732340
-792047
-855663
-922893
-993229
-1.0659e+06
-1.13984e+06
-1.21364e+06
-1.28556e+06
-1.35357e+06
-1.41538e+06
-1.46862e+06
-1.51099e+06
-1.54048e+06
-1.55561e+06
-99749.2
-100208
-101124
-102504
-104358
-106697
-109537
-112897
-116800
-121272
-126345
-132055
-138442
-145553
-153440
-162165
-171793
-182402
-194076
-206911
-221013
-236504
-253515
-272195
-292708
-315235
-339975
-367142
-396970
-429705
-465607
-504939
-547965
-594930
-646048
-701479
-761294
-825441
-893699
-965623
-1.04049e+06
-1.11724e+06
-1.19444e+06
-1.27026e+06
-1.34248e+06
-1.40858e+06
-1.46588e+06
-1.51171e+06
-1.54375e+06
-1.56023e+06
-90640.6
-91061.3
-91900.4
-93165
-94863.8
-97008.2
-99612.9
-102696
-106278
-110386
-115048
-120298
-126175
-132724
-139996
-148047
-156943
-166756
-177570
-189478
-202583
-217004
-232872
-250334
-269556
-290718
-314024
-339695
-367973
-399118
-433409
-471134
-512590
-558063
-607820
-662079
-720986
-784569
-852691
-924991
-1.00082e+06
-1.07917e+06
-1.1586e+06
-1.23724e+06
-1.31274e+06
-1.38237e+06
-1.44312e+06
-1.49202e+06
-1.52635e+06
-1.54406e+06
-81096.7
-81475.7
-82231.9
-83371.7
-84903.3
-86837.1
-89186.7
-91968.5
-95202.6
-98912.4
-103125
-107872
-113191
-119121
-125712
-133016
-141094
-150016
-159861
-170715
-182680
-195868
-210406
-226437
-244122
-263638
-285187
-308990
-335290
-364356
-396474
-431949
-471100
-514246
-561695
-613721
-670534
-732244
-798805
-869956
-945143
-1.02344e+06
-1.10348e+06
-1.18338e+06
-1.26071e+06
-1.3326e+06
-1.3958e+06
-1.44699e+06
-1.48311e+06
-1.5018e+06
-71160.3
-71494.8
-72162.4
-73169
-74521.7
-76230.1
-78306.3
-80765.3
-83625
-86906.8
-90635.4
-94839.4
-99552
-104811
-110659
-117146
-124328
-132268
-141038
-150721
-161409
-173208
-186235
-200627
-216534
-234127
-253598
-275162
-299056
-325544
-354911
-387468
-423542
-463470
-507587
-556209
-609601
-667944
-731281
-799456
-872033
-948206
-1.02671e+06
-1.10574e+06
-1.18289e+06
-1.2552e+06
-1.31928e+06
-1.37154e+06
-1.40863e+06
-1.42789e+06
-60877.4
-61164.9
-61738.9
-62604.5
-63767.8
-65237.4
-67023.8
-69140.1
-71602.1
-74428.6
-77641.2
-81265.2
-85329.7
-89868.1
-94918.7
-100525
-106737
-113611
-121212
-129612
-138896
-149158
-160506
-173061
-186964
-202369
-219456
-238421
-259490
-282910
-308954
-337923
-370137
-405934
-445657
-489643
-538192
-591538
-649802
-712928
-780604
-852172
-926520
-1.00199e+06
-1.07631e+06
-1.14657e+06
-1.20935e+06
-1.26093e+06
-1.29775e+06
-1.31696e+06
-50296.6
-50534.9
-51010.8
-51728.6
-52693.5
-53912.5
-55394.7
-57151
-59194.8
-61541.8
-64210.4
-67222
-70601.3
-74376.5
-78580.1
-83249.2
-88426.3
-94159.6
-100504
-107524
-115289
-123882
-133396
-143937
-155627
-168602
-183018
-199052
-216903
-236793
-258970
-283708
-311304
-342076
-376353
-414465
-456723
-503390
-554637
-610490
-670759
-734941
-802122
-870867
-939133
-1.00423e+06
-1.06288e+06
-1.11146e+06
-1.14637e+06
-1.16466e+06
-39468.8
-39656
-40030.1
-40594.4
-41353.1
-42311.8
-43477.6
-44859.3
-46467.5
-48314.7
-50415.8
-52787.6
-55450
-58425.5
-61740.3
-65424.1
-69510.9
-74039.7
-79055
-84607.5
-90755.5
-97565.2
-105112
-113484
-122779
-133110
-144605
-157411
-171694
-187640
-205459
-225382
-247665
-272585
-300431
-331501
-366084
-404437
-446751
-493107
-543410
-597312
-654114
-712666
-771266
-827606
-878794
-921527
-952451
-968734
-28446.7
-28581.3
-28850.7
-29257.1
-29803.4
-30493.9
-31333.7
-32329.1
-33487.9
-34819.2
-36333.8
-38044
-39964.2
-42111
-44503.3
-47163.1
-50115
-53387.9
-57014.1
-61031.3
-65482
-70415.2
-75887.1
-81961.7
-88712.6
-96223.7
-104591
-113925
-124348
-136003
-149049
-163662
-180040
-198395
-218958
-241964
-267648
-296228
-327877
-362691
-400642
-441514
-484826
-529748
-575010
-618843
-658971
-692726
-717321
-730338
-17284.6
-17365.7
-17528.1
-17773.3
-18102.9
-18519.5
-19026.2
-19626.9
-20326.3
-21129.9
-22044.2
-23076.8
-24236.4
-25533.1
-26978.5
-28585.9
-30370.4
-32349.5
-34543.1
-36974.1
-39668.6
-42656.7
-45972.8
-49656.3
-53752.4
-58313.1
-63397.5
-69073.7
-75418.9
-82521
-90479.4
-99405.4
-109423
-120667
-133285
-147429
-163252
-180900
-200493
-222108
-245746
-271295
-298478
-326799
-355477
-383405
-409127
-430901
-446864
-455354
-6037.82
-6064.85
-6119.14
-6201.08
-6311.26
-6450.52
-6619.9
-6820.72
-7054.54
-7323.21
-7628.93
-7974.23
-8362.05
-8795.76
-9279.25
-9816.98
-10414.1
-11076.4
-11810.6
-12624.4
-13526.7
-14527.5
-15638.4
-16872.8
-18245.9
-19775.2
-21480.8
-23385.8
-25516.3
-27902.2
-30577.2
-33579.4
-36951.1
-40738.7
-44992.6
-49765.4
-55110.6
-61079.2
-67714.5
-75045.4
-83075.8
-91771.5
-101043
-110726
-120558
-130161
-139038
-146581
-152134
-155097
-4800.66
-4815
-4843.22
-4885.44
-4941.65
-5011.85
-5096
-5194.09
-5306.04
-5431.8
-5571.28
-5724.36
-5890.91
-6070.75
-6263.67
-6469.43
-6687.73
-6918.2
-7160.44
-7413.98
-7678.26
-7952.66
-8236.48
-8528.93
-8829.13
-9136.12
-9448.83
-9766.1
-10086.7
-10409.2
-10732.3
-11054.3
-11373.8
-11689
-11998.2
-12299.7
-12591.6
-12872.1
-13139.5
-13392
-13627.7
-13845.2
-14042.7
-14218.9
-14372.3
-14501.9
-14606.6
-14685.7
-14738.5
-14764.8
-14387.4
-14430.3
-14515
-14641.6
-14810.2
-15020.8
-15273.3
-15567.5
-15903.4
-16280.7
-16699.1
-17158.4
-17658.2
-18197.8
-18776.7
-19394.2
-20049.3
-20741
-21468.1
-22229.1
-23022.4
-23846.1
-24698.2
-25576.3
-26477.7
-27399.6
-28338.7
-29291.5
-30254.4
-31223.3
-32193.8
-33161.4
-34121.3
-35068.4
-35997.6
-36903.6
-37781
-38624.3
-39428
-40186.9
-40895.8
-41549.5
-42143.5
-42673.2
-43134.6
-43524.3
-43839.2
-44076.9
-44235.5
-44314.2
-23930.4
-24001.8
-24142.7
-24353.7
-24634.7
-24985.7
-25406.4
-25896.9
-26456.7
-27085.6
-27783.2
-28548.9
-29382
-30281.8
-31247.2
-32276.9
-33369.6
-34523.4
-35736.3
-37006
-38329.8
-39704.6
-41126.9
-42592.7
-44097.8
-45637.2
-47205.7
-48797.4
-50406.1
-52025.1
-53647.1
-55264.5
-56869.3
-58453
-60007
-61522.5
-62990.2
-64401.2
-65746.3
-67016.4
-68202.9
-69297.3
-70291.7
-71178.7
-71951.4
-72604
-73131.3
-73529.2
-73794.6
-73925.5
-33400
-33499.8
-33697.1
-33992.3
-34385.7
-34876.9
-35465.9
-36152.5
-36936.3
-37816.9
-38793.8
-39866.1
-41033.1
-42293.6
-43646.1
-45089
-46620.4
-48237.7
-49938.2
-51718.6
-53575.3
-55503.8
-57499.4
-59556.6
-61669.3
-63830.8
-66033.5
-68269.5
-70530
-72805.3
-75085.6
-77359.9
-79617
-81845.1
-84032
-86165.1
-88231.5
-90218.5
-92113
-93902.4
-95574.3
-97116.7
-98518.4
-99768.8
-100858
-101779
-102522
-103083
-103457
-103641
-42766.9
-42895
-43148.5
-43528
-44033.5
-44665
-45422.2
-46304.9
-47312.6
-48445
-49701.4
-51080.7
-52582
-54203.8
-55944.5
-57801.9
-59773.4
-61856.2
-64046.6
-66340.5
-68733.3
-71219.4
-73792.7
-76446.2
-79172.1
-81961.8
-84805.8
-87693.6
-90613.9
-93554.5
-96502.4
-99443.7
-102364
-105247
-108078
-110840
-113517
-116092
-118548
-120868
-123036
-125037
-126855
-128478
-129892
-131087
-132052
-132780
-133266
-133504
-52001.7
-52158.1
-52467.7
-52931.2
-53548.8
-54320.3
-55245.6
-56324.3
-57556
-58940.2
-60476.2
-62162.9
-63999.1
-65983.2
-68113.1
-70386.4
-72800.1
-75350.7
-78033.9
-80844.9
-83777.9
-86826.3
-89982.9
-93239
-96585.3
-100011
-103505
-107054
-110645
-114263
-117890
-121511
-125108
-128661
-132151
-135557
-138860
-142037
-145069
-147935
-150614
-153086
-155335
-157341
-159090
-160568
-161762
-162664
-163264
-163559
-61075.1
-61259.7
-61625.2
-62172.7
-62902.2
-63813.5
-64906.5
-66181
-67636.6
-69272.7
-71088.5
-73082.9
-75254.7
-77601.9
-80122.3
-82813.3
-85671.4
-88692.6
-91872.1
-95204.2
-98682.3
-102299
-106045
-109912
-113887
-117959
-122114
-126336
-130610
-134918
-139241
-143558
-147848
-152088
-156255
-160324
-164271
-168071
-171698
-175127
-178334
-181296
-183990
-186395
-188492
-190264
-191696
-192777
-193498
-193851
-69957.8
-70170.5
-70591.9
-71223
-72064
-73114.8
-74375.4
-75845.4
-77524.6
-79412.4
-81508.1
-83810.6
-86318.4
-89029.7
-91942.1
-95052.6
-98357.6
-101853
-105532
-109390
-113419
-117611
-121955
-126440
-131055
-135784
-140612
-145522
-150495
-155510
-160545
-165577
-170580
-175529
-180394
-185149
-189763
-194207
-198452
-202468
-206225
-209696
-212855
-215676
-218136
-220216
-221898
-223167
-224013
-224428
-78620.8
-78861.5
-79338.4
-80052.9
-81005.1
-82194.9
-83622.5
-85287.6
-87190
-89329.3
-91704.8
-94315.5
-97159.9
-100236
-103542
-107074
-110828
-114801
-118985
-123374
-127960
-132734
-137684
-142799
-148064
-153463
-158979
-164593
-170282
-176024
-181792
-187561
-193301
-198982
-204572
-210038
-215347
-220463
-225352
-229980
-234313
-238318
-241964
-245222
-248065
-250469
-252413
-253881
-254859
-255339
-87035
-87303.6
-87835.8
-88633.2
-89695.9
-91024.2
-92618.1
-94477.6
-96602.7
-98993.1
-101648
-104567
-107748
-111190
-114891
-118846
-123053
-127506
-132199
-137124
-142275
-147639
-153205
-158960
-164889
-170973
-177194
-183529
-189954
-196444
-202970
-209501
-216005
-222447
-228791
-234999
-241032
-246852
-252417
-257689
-262627
-267195
-271355
-275075
-278321
-281068
-283290
-284969
-286088
-286637
-95171.7
-95467.8
-96055
-96934.7
-98107.3
-99573.2
-101333
-103386
-105733
-108373
-111307
-114534
-118052
-121860
-125957
-130337
-134999
-139936
-145142
-150611
-156332
-162296
-168489
-174897
-181503
-188288
-195231
-202307
-209492
-216754
-224064
-231386
-238684
-245919
-253051
-260036
-266830
-273389
-279666
-285617
-291195
-296359
-301065
-305274
-308951
-312062
-314581
-316484
-317753
-318377
-103002
-103326
-103967
-104929
-106210
-107813
-109736
-111982
-114549
-117439
-120651
-124185
-128040
-132215
-136707
-141515
-146633
-152058
-157783
-163800
-170100
-176672
-183503
-190576
-197875
-205378
-213063
-220904
-228872
-236935
-245058
-253203
-261329
-269394
-277351
-285152
-292748
-300087
-307118
-313788
-320047
-325844
-331132
-335864
-340000
-343503
-346339
-348483
-349913
-350617
-110498
-110849
-111544
-112586
-113976
-115713
-117800
-120236
-123022
-126160
-129648
-133488
-137679
-142220
-147109
-152345
-157923
-163839
-170086
-176658
-183545
-190734
-198214
-205966
-213974
-222214
-230663
-239292
-248070
-256963
-265932
-274935
-283928
-292863
-301688
-310350
-318793
-326959
-334790
-342227
-349212
-355686
-361597
-366890
-371520
-375443
-378621
-381024
-382629
-383418
-117631
-118009
-118757
-119879
-121375
-123246
-125494
-128118
-131122
-134505
-138268
-142412
-146937
-151843
-157129
-162793
-168832
-175242
-182016
-189148
-196628
-204446
-212586
-221032
-229765
-238762
-247997
-257441
-267058
-276813
-286664
-296565
-306467
-316316
-326057
-335629
-344971
-354017
-362701
-370957
-378719
-385921
-392501
-398400
-403562
-407939
-411487
-414172
-415965
-416849
-124374
-124778
-125579
-126779
-128380
-130382
-132788
-135599
-138817
-142442
-146477
-150923
-155781
-161051
-166732
-172825
-179325
-186230
-193535
-201232
-209314
-217768
-226580
-235735
-245211
-254986
-265031
-275316
-285804
-296456
-307227
-318068
-328925