/*--------------------------------*- C++ -*----------------------------------*\
  =========                 |
  \\      /  F ield         | OpenFOAM: The Open Source CFD Toolbox
   \\    /   O peration     | Website:  https://openfoam.org
    \\  /    A nd           | Version:  8
     \\/     M anipulation  |
\*---------------------------------------------------------------------------*/
FoamFile
{
    version     2.0;
    format      ascii;
    class       volScalarField;
    location    "1.9";
    object      T;
}
// * * * * * * * * * * * * * * * * * * * * * * * * * * * * * * * * * * * * * //

dimensions      [0 0 0 1 0 0 0];

internalField   nonuniform List<scalar> 
400
(
293.271
293.865
294.625
295.615
296.798
298.061
299.275
300.355
301.248
301.92
302.341
302.48
302.31
301.81
300.976
299.828
298.424
296.865
295.273
293.741
293.869
295.784
298.254
301.473
305.277
309.237
312.934
316.116
318.66
320.495
321.559
321.792
321.137
319.547
317.005
313.559
309.356
304.673
299.871
295.238
294.602
298.112
302.637
308.456
315.137
321.837
327.862
332.885
336.796
339.543
341.08
341.348
340.258
337.71
333.615
327.972
320.955
313.003
304.77
296.817
295.489
300.896
307.813
316.509
326.107
335.274
343.137
349.434
354.174
357.426
359.24
359.597
358.38
355.377
350.323
343.008
333.464
322.191
310.207
298.55
296.521
304.083
313.632
325.287
337.528
348.512
357.338
363.986
368.743
371.926
373.767
374.328
373.464
370.814
365.829
357.895
346.615
332.287
316.282
300.466
297.673
307.58
319.876
334.334
348.609
360.395
368.994
374.861
378.728
381.258
382.888
383.771
383.742
382.298
378.578
371.434
359.73
343.096
322.997
302.558
298.919
311.284
326.298
343.177
358.58
369.9
376.984
381.02
383.287
384.766
386.043
387.327
388.453
388.838
387.392
382.455
371.958
354.3
330.36
304.816
300.242
315.152
332.75
351.404
366.791
376.323
380.792
382.312
382.648
382.951
383.843
385.545
387.914
390.383
391.791
390.142
382.473
365.497
338.432
307.235
301.59
318.936
338.808
358.571
372.79
379.373
380.542
379.349
377.802
377.024
377.569
379.636
383.129
387.586
391.951
394.154
390.599
376.193
347.297
309.832
303.046
323.038
344.856
364.607
376.362
379.161
376.867
373.187
370.053
368.403
368.658
370.984
375.346
381.451
388.483
394.577
395.905
385.819
356.973
312.676
304.37
326.372
349.665
368.857
377.42
376.15
370.685
365.015
360.7
358.419
358.441
360.895
365.809
373.081
382.228
391.812
398.233
393.82
367.329
315.987
306.049
330.882
354.993
372.143
376.449
371.041
363.014
355.971
350.895
348.22
348.063
350.523
355.673
363.582
374.135
386.478
397.686
399.739
378.052
320.262
307.193
333.216
357.95
372.954
373.174
364.483
354.861
347.077
341.629
338.77
338.486
340.861
345.982
354.029
365.218
379.349
394.588
403.29
388.658
326.334
309.56
338.57
362.485
373.739
369.367
357.898
347.329
339.256
333.771
330.902
330.543
332.771
337.679
345.449
356.545
371.342
389.466
404.378
398.557
335.2
309.888
339.595
363.274
371.335
363.67
351.157
340.901
333.304
328.211
325.511
325.117
327.126
331.685
338.862
349.253
363.546
383.065
403.11
407.151
347.58
314.999
346.21
367.2
370.804
360.294
347.603
338.022
331.038
326.403
323.919
323.497
325.158
329.182
335.43
344.624
357.31
376.46
399.844
413.944
363.358
311.696
345.903
365.391
366.386
355.981
345.408
337.84
332.594
329.253
327.518
327.462
328.778
332.042
336.826
344.314
354.434
371.353
395.382
418.687
381.262
323.59
353.604
369.463
368.943
361.24
353.844
348.396
344.465
342.12
340.552
340.431
340.785
342.858
345.484
350.76
357.593
370.805
391.68
421.734
399.256
311.101
348.762
361.988
364.899
364.224
362.211
361.069
359.581
359.454
358.775
359.701
359.842
362.028
363.325
367.64
371.511
381.327
394.248
425.39
415.94
329.301
348.784
360.661
368.09
374.767
379.296
384.552
387.886
392.67
395.212
399.931
401.812
406.836
408.136
414.06
414.993
423.299
424.578
440.342
433.15
)
;

boundaryField
{
    movingWall
    {
        type            fixedValue;
        value           uniform 493;
    }
    fixedWalls
    {
        type            fixedValue;
        value           uniform 293;
    }
    frontAndBack
    {
        type            empty;
    }
}


// ************************************************************************* //
