/*--------------------------------*- C++ -*----------------------------------*\
  =========                 |
  \\      /  F ield         | OpenFOAM: The Open Source CFD Toolbox
   \\    /   O peration     | Website:  https://openfoam.org
    \\  /    A nd           | Version:  8
     \\/     M anipulation  |
\*---------------------------------------------------------------------------*/
FoamFile
{
    version     2.0;
    format      ascii;
    class       volScalarField;
    location    "9.6";
    object      T;
}
// * * * * * * * * * * * * * * * * * * * * * * * * * * * * * * * * * * * * * //

dimensions      [0 0 0 1 0 0 0];

internalField   nonuniform List<scalar> 
400
(
293.799
295.343
296.819
298.286
299.78
301.266
302.663
303.889
304.881
305.59
305.978
306.009
305.654
304.894
303.728
302.18
300.317
298.25
296.114
294.022
295.452
300.186
304.735
309.296
313.949
318.527
322.734
326.308
329.083
330.953
331.845
331.696
330.455
328.085
324.587
320.022
314.558
308.488
302.199
296.018
297.206
305.286
313.063
320.863
328.757
336.363
343.143
348.714
352.889
355.583
356.745
356.319
354.237
350.42
344.818
337.465
328.57
318.59
308.193
297.967
299.049
310.604
321.732
332.844
343.887
354.185
363.002
369.963
374.992
378.125
379.396
378.784
376.193
371.455
364.369
354.798
342.842
329.038
314.4
299.96
300.957
316.062
330.596
344.967
358.853
371.24
381.307
388.866
394.098
397.252
398.504
397.893
395.295
390.411
382.796
371.969
357.662
340.257
321.124
302.085
302.909
321.594
339.51
356.938
373.146
386.782
397.13
404.395
409.143
411.894
412.984
412.523
410.368
406.106
399.03
388.196
372.689
352.297
328.515
304.384
304.894
327.15
348.341
368.478
386.282
400.159
409.759
415.899
419.603
421.636
422.451
422.205
420.76
417.65
411.987
402.397
387.144
364.896
336.62
306.86
306.908
332.708
356.999
379.338
397.848
410.908
418.871
423.341
425.743
426.963
427.48
427.452
426.771
424.998
421.217
413.796
400.227
377.658
345.499
309.509
308.944
338.206
365.313
389.261
407.546
418.853
424.63
427.296
428.468
428.984
429.249
429.397
429.358
428.8
426.93
422.106
411.324
390.123
355.245
312.345
311.023
343.707
373.368
398.165
415.244
424.125
427.601
428.697
428.928
428.945
429.031
429.277
429.662
430
429.733
427.457
420.064
401.77
365.898
315.441
313.137
349.09
380.758
405.731
420.918
427.114
428.561
428.534
428.178
427.916
427.894
428.158
428.729
429.566
430.403
430.256
426.341
412.096
377.356
319.03
315.322
354.457
387.998
412.3
424.876
428.377
428.304
427.647
427.025
426.669
426.6
426.831
427.393
428.358
429.741
431.071
430.284
420.701
389.344
323.634
317.67
359.93
394.247
417.265
427.086
428.413
427.503
426.629
425.966
425.638
425.568
425.757
426.215
427.045
428.476
430.531
432.201
427.34
401.418
330.134
320.164
365.1
400.616
421.612
428.453
428.029
426.703
425.798
425.196
424.933
424.888
425.067
425.443
426.042
427.202
429.267
432.517
431.94
413.032
339.596
322.981
371.31
405.751
424.176
428.433
427.113
425.906
425.176
424.699
424.485
424.46
424.648
425.045
425.478
426.304
427.843
431.736
434.582
423.628
352.827
326.907
376.296
411.158
426.669
428.737
426.999
425.868
425.118
424.61
424.348
424.309
424.445
424.917
425.26
425.918
426.698
430.413
435.472
432.728
369.791
329.159
384.04
414.972
426.998
427.794
426.291
425.408
424.933
424.678
424.525
424.681
424.728
425.232
425.332
425.99
426.086
429.171
434.95
439.997
389.247
337.139
387.799
417.81
427.805
429.062
428.41
427.75
427.075
426.857
426.317
426.411
425.917
426.277
425.749
426.46
426.068
428.826
433.673
445.355
409.041
333.229
393.929
414.808
422.189
424.909
425.198
425.727
425.133
425.62
424.91
425.675
424.947
426.134
425.421
427.351
426.931
431.092
433.488
449.572
427.342
338.919
368.832
384.798
394.06
401.856
406.809
412.428
415.675
420.538
422.714
427.367
428.634
433.462
433.807
439.298
438.608
445.845
443.852
457.198
444.516
)
;

boundaryField
{
    movingWall
    {
        type            fixedValue;
        value           uniform 493;
    }
    fixedWalls
    {
        type            fixedValue;
        value           uniform 293;
    }
    frontAndBack
    {
        type            empty;
    }
}


// ************************************************************************* //
