/*--------------------------------*- C++ -*----------------------------------*\
  =========                 |
  \\      /  F ield         | OpenFOAM: The Open Source CFD Toolbox
   \\    /   O peration     | Website:  https://openfoam.org
    \\  /    A nd           | Version:  8
     \\/     M anipulation  |
\*---------------------------------------------------------------------------*/
FoamFile
{
    version     2.0;
    format      ascii;
    class       volScalarField;
    location    "3.3";
    object      p;
}
// * * * * * * * * * * * * * * * * * * * * * * * * * * * * * * * * * * * * * //

dimensions      [0 2 -2 0 0 0 0];

internalField   nonuniform List<scalar> 
400
(
1.37847e-06
-0.00582764
-0.0129659
-0.0184185
-0.0204362
-0.0182426
-0.0117781
-0.00148792
0.0118332
0.0271452
0.0432406
0.0588194
0.0725751
0.083305
0.0900493
0.0922635
0.0900223
0.0842403
0.076877
0.0710635
0.00577844
-0.00022109
-0.0058072
-0.00954606
-0.0106027
-0.00843657
-0.00297392
0.00547007
0.0162988
0.0287077
0.0417459
0.0543822
0.0655828
0.0744064
0.0801168
0.0823122
0.0810737
0.0770512
0.0712704
0.0653141
0.0133323
0.00503065
-0.000998599
-0.00442662
-0.00527661
-0.00326774
0.00159844
0.00902359
0.018498
0.0293452
0.0407614
0.0518658
0.0617648
0.0696327
0.0748034
0.0768745
0.075838
0.0720821
0.0658017
0.0575316
0.0201366
0.00869288
0.00122255
-0.00267205
-0.00372581
-0.00188912
0.00272739
0.00978062
0.0187764
0.029091
0.0399879
0.0506501
0.0602291
0.0679122
0.0729995
0.0749978
0.0737621
0.0694523
0.061599
0.0500985
0.0244991
0.00977002
0.000586494
-0.00399039
-0.00530589
-0.00351113
0.00117085
0.00833062
0.017458
0.0279451
0.039081
0.0500659
0.0600449
0.0681612
0.0736225
0.0757939
0.0743652
0.0692859
0.0595216
0.044533
0.0251749
0.00714691
-0.00380528
-0.00906061
-0.0105157
-0.00850372
-0.00336067
0.0044255
0.0143094
0.025675
0.0378098
0.0498993
0.0610441
0.0702991
0.0767307
0.079513
0.078135
0.0723296
0.0605353
0.0418859
0.0210903
-0.000265571
-0.0129378
-0.0187127
-0.0200333
-0.0174176
-0.0113222
-0.00232357
0.00898651
0.0219722
0.0359057
0.0499404
0.0631082
0.0743413
0.0825179
0.0865655
0.0857167
0.0794431
0.0656164
0.0430676
0.0111395
-0.0136215
-0.0278784
-0.0338576
-0.0346069
-0.030861
-0.0232165
-0.012349
0.00110097
0.01648
0.0330486
0.0499297
0.0660794
0.080286
0.0911968
0.0974261
0.0978663
0.0916321
0.0758923
0.0491125
-0.00597057
-0.0342699
-0.0498735
-0.055552
-0.0550936
-0.0495181
-0.0395971
-0.026117
-0.00976091
0.00881913
0.0288971
0.0495896
0.0697936
0.0881507
0.103044
0.112697
0.115547
0.110188
0.0928303
0.0614075
-0.0318606
-0.0638797
-0.0804205
-0.0850107
-0.0824236
-0.0740818
-0.0609844
-0.0440402
-0.0239552
-0.00134069
0.0231418
0.0486572
0.0740918
0.0979685
0.118392
0.133122
0.139985
0.136814
0.118437
0.08193
-0.0686709
-0.104607
-0.121348
-0.123594
-0.117519
-0.10513
-0.0877217
-0.066329
-0.0416406
-0.0141593
0.0156018
0.0469494
0.078852
0.10979
0.13762
0.159582
0.172723
0.173774
0.155517
0.113567
-0.119406
-0.15936
-0.174918
-0.172761
-0.161151
-0.142932
-0.119762
-0.0927804
-0.0625809
-0.0294512
0.00636956
0.0444699
0.0840515
0.123699
0.161133
0.193082
0.215665
0.224073
0.208047
0.160629
-0.188632
-0.232245
-0.243942
-0.233951
-0.213698
-0.187158
-0.156376
-0.122504
-0.0859011
-0.0464754
-0.00401776
0.0415355
0.0898388
0.139826
0.189316
0.234686
0.271071
0.291661
0.281739
0.229773
-0.283978
-0.329308
-0.331835
-0.308283
-0.274712
-0.236443
-0.195767
-0.153613
-0.109843
-0.0637481
-0.0144408
0.0388605
0.0965513
0.158274
0.222371
0.285285
0.341394
0.381572
0.384911
0.331831
-0.419321
-0.459674
-0.442353
-0.395795
-0.342131
-0.287742
-0.234618
-0.182932
-0.131612
-0.0789874
-0.0232165
0.0374728
0.104551
0.178835
0.259859
0.344968
0.428614
0.499697
0.529672
0.485389
-0.620534
-0.636746
-0.578679
-0.494195
-0.411242
-0.33566
-0.267782
-0.205979
-0.147538
-0.0893849
-0.028428
0.0383464
0.113805
0.20047
0.299973
0.412023
0.533027
0.651773
0.73277
0.722394
-0.935926
-0.878517
-0.741743
-0.59795
-0.474394
-0.37266
-0.28887
-0.217764
-0.153955
-0.0924654
-0.0287189
0.0416941
0.123262
0.220717
0.338924
0.482153
0.651995
0.84134
1.01527
1.0975
-1.47642
-1.20663
-0.920504
-0.691389
-0.517306
-0.387545
-0.290062
-0.213338
-0.148125
-0.0872168
-0.024579
0.0454561
0.128936
0.23307
0.367102
0.542677
0.771292
1.05932
1.40329
1.73014
-2.53965
-1.63055
-1.04444
-0.71096
-0.495752
-0.352094
-0.254532
-0.183584
-0.12617
-0.0735964
-0.0192704
0.0427855
0.119211
0.218781
0.354811
0.547982
0.826391
1.23658
1.91168
2.92419
-4.36667
-2.04463
-0.973543
-0.563182
-0.357847
-0.240148
-0.17012
-0.123784
-0.0874825
-0.0535115
-0.0166558
0.0276592
0.084606
0.161728
0.27241
0.442097
0.718217
1.22571
2.41103
4.84853
)
;

boundaryField
{
    movingWall
    {
        type            zeroGradient;
    }
    fixedWalls
    {
        type            zeroGradient;
    }
    frontAndBack
    {
        type            empty;
    }
}


// ************************************************************************* //
