/*--------------------------------*- C++ -*----------------------------------*\
  =========                 |
  \\      /  F ield         | OpenFOAM: The Open Source CFD Toolbox
   \\    /   O peration     | Website:  https://openfoam.org
    \\  /    A nd           | Version:  8
     \\/     M anipulation  |
\*---------------------------------------------------------------------------*/
FoamFile
{
    version     2.0;
    format      ascii;
    class       volScalarField;
    location    "3.3";
    object      T;
}
// * * * * * * * * * * * * * * * * * * * * * * * * * * * * * * * * * * * * * //

dimensions      [0 0 0 1 0 0 0];

internalField   nonuniform List<scalar> 
400
(
293.629
294.862
296.085
297.353
298.679
300.016
301.284
302.408
303.33
304.006
304.399
304.476
304.205
303.566
302.553
301.188
299.531
297.684
295.776
293.91
294.938
298.736
302.534
306.501
310.653
314.789
318.621
321.913
324.511
326.319
327.262
327.277
326.306
324.305
321.259
317.219
312.336
306.886
301.238
295.699
296.348
302.881
309.429
316.269
323.353
330.25
336.447
341.595
345.526
348.163
349.451
349.331
347.718
344.52
339.659
333.144
325.155
316.129
306.712
297.476
297.852
307.27
316.72
326.529
336.476
345.824
353.874
360.288
365.011
368.086
369.554
369.388
367.476
363.619
357.573
349.153
338.414
325.859
312.489
299.326
299.428
311.833
324.261
337.002
349.513
360.703
369.792
376.631
381.431
384.472
385.952
385.917
384.219
380.514
374.289
364.982
352.246
336.406
318.822
301.326
301.057
316.497
331.895
347.367
361.893
374.031
383.1
389.363
393.457
395.969
397.284
397.523
396.52
393.794
388.539
379.685
366.187
347.742
325.82
303.503
302.722
321.203
339.466
357.298
373.056
385.028
392.922
397.662
400.402
402.019
403.035
403.625
403.622
402.472
399.151
392.106
379.407
359.569
333.513
305.856
304.417
325.925
346.874
366.504
382.505
393.126
398.827
401.4
402.468
403.063
403.746
404.703
405.788
406.458
405.625
401.421
391.07
371.477
341.955
308.379
306.121
330.541
353.868
374.668
389.88
398.082
400.932
401.137
400.563
400.216
400.602
401.886
403.96
406.372
408.128
407.297
400.518
382.978
351.229
311.086
307.878
335.245
360.64
381.705
395.001
399.994
399.805
397.834
395.878
394.775
394.924
396.45
399.299
403.156
407.244
409.821
407.336
393.522
361.361
314.048
309.591
339.541
366.489
387.173
397.808
399.265
396.272
392.559
389.568
387.92
387.886
389.557
392.923
397.821
403.758
409.382
411.381
402.569
372.234
317.489
311.479
344.274
372.38
391.575
398.664
396.508
391.234
386.302
382.62
380.623
380.455
382.183
385.823
391.339
398.53
406.555
412.757
409.686
383.547
321.921
313.223
348.126
376.707
393.972
397.455
392.314
385.551
379.91
375.837
373.652
373.392
375.121
378.846
384.6
392.433
402.035
411.768
414.599
394.836
328.199
315.564
353.058
381.638
395.891
395.436
387.793
380.115
374.118
369.907
367.661
367.346
369.032
372.721
378.416
386.341
396.604
408.887
417.216
405.525
337.355
317.165
356.646
384.307
395.446
391.847
383.004
375.37
369.59
365.573
363.403
363.059
364.63
368.174
373.567
381.14
391.147
404.751
417.628
415.032
350.148
321.521
361.981
388.305
395.689
389.525
380.354
373.157
367.785
364.099
362.084
361.723
363.024
366.215
370.974
377.806
386.702
400.229
416.123
422.865
366.5
321.07
365.676
389.07
393.334
386.653
378.863
373.109
369.062
366.423
364.997
364.937
365.894
368.455
372
377.601
384.6
396.627
413.314
428.735
385.148
330.758
370.851
391.882
394.709
390.14
385.023
381.088
378.129
376.397
375.095
375.029
375.114
376.703
378.379
382.275
386.716
396.204
410.634
432.807
403.996
322.658
371.735
387.483
391.54
391.833
390.458
389.774
388.462
388.451
387.644
388.437
388.17
389.951
390.438
393.853
396.031
403.615
412.093
436.728
421.446
334.375
359.239
372.989
381.137
388.206
392.814
398.141
401.342
406.086
408.384
413.014
414.551
419.446
420.262
425.975
426.141
433.982
433.764
448.483
438.669
)
;

boundaryField
{
    movingWall
    {
        type            fixedValue;
        value           uniform 493;
    }
    fixedWalls
    {
        type            fixedValue;
        value           uniform 293;
    }
    frontAndBack
    {
        type            empty;
    }
}


// ************************************************************************* //
