/*--------------------------------*- C++ -*----------------------------------*\
  =========                 |
  \\      /  F ield         | OpenFOAM: The Open Source CFD Toolbox
   \\    /   O peration     | Website:  https://openfoam.org
    \\  /    A nd           | Version:  8
     \\/     M anipulation  |
\*---------------------------------------------------------------------------*/
FoamFile
{
    version     2.0;
    format      ascii;
    class       volScalarField;
    location    "7";
    object      p;
}
// * * * * * * * * * * * * * * * * * * * * * * * * * * * * * * * * * * * * * //

dimensions      [0 2 -2 0 0 0 0];

internalField   nonuniform List<scalar> 
400
(
3.25976e-07
-0.00582944
-0.0129679
-0.0184204
-0.0204381
-0.0182446
-0.0117801
-0.0014899
0.0118312
0.0271431
0.0432386
0.0588174
0.0725731
0.083303
0.0900474
0.0922615
0.0900203
0.0842382
0.076875
0.0710614
0.00577666
-0.000222991
-0.00580915
-0.00954804
-0.0106047
-0.00843856
-0.00297589
0.00546811
0.0162968
0.0287057
0.0417439
0.0543802
0.0655808
0.0744044
0.0801148
0.0823102
0.0810717
0.0770492
0.0712684
0.0653121
0.0133304
0.00502871
-0.00100055
-0.0044286
-0.00527861
-0.00326975
0.00159645
0.00902162
0.0184961
0.0293433
0.0407594
0.0518637
0.0617627
0.0696307
0.0748014
0.0768725
0.075836
0.0720802
0.0657997
0.0575296
0.0201346
0.00869093
0.0012206
-0.00267402
-0.00372781
-0.00189114
0.00272537
0.00977862
0.0187744
0.029089
0.039986
0.0506481
0.060227
0.0679102
0.0729975
0.0749958
0.0737601
0.0694503
0.0615971
0.0500965
0.0244971
0.00976804
0.000584539
-0.00399234
-0.00530787
-0.00351315
0.00116882
0.0083286
0.017456
0.0279431
0.039079
0.050064
0.0600429
0.0681591
0.0736205
0.0757919
0.0743631
0.0692839
0.0595196
0.044531
0.0251729
0.00714491
-0.00380725
-0.00906256
-0.0105177
-0.0085057
-0.00336269
0.00442346
0.0143074
0.025673
0.0378078
0.0498973
0.0610421
0.0702972
0.0767287
0.0795109
0.078133
0.0723276
0.0605333
0.0418839
0.0210883
-0.000267591
-0.0129398
-0.0187147
-0.0200353
-0.0174195
-0.0113241
-0.0023256
0.00898446
0.0219702
0.0359037
0.0499384
0.0631062
0.0743393
0.0825159
0.0865635
0.0857147
0.0794411
0.0656144
0.0430656
0.0111375
-0.0136236
-0.0278804
-0.0338596
-0.0346089
-0.030863
-0.0232185
-0.012351
0.00109894
0.0164779
0.0330466
0.0499277
0.0660775
0.080284
0.0911948
0.0974241
0.0978643
0.0916301
0.0758903
0.0491105
-0.00597255
-0.0342719
-0.0498755
-0.0555541
-0.0550956
-0.04952
-0.039599
-0.026119
-0.0097629
0.00881711
0.0288951
0.0495876
0.0697916
0.0881487
0.103042
0.112695
0.115545
0.110186
0.0928283
0.0614055
-0.0318626
-0.0638817
-0.0804225
-0.0850127
-0.0824256
-0.0740838
-0.0609864
-0.0440422
-0.0239572
-0.00134268
0.0231397
0.0486551
0.0740898
0.0979664
0.11839
0.13312
0.139983
0.136812
0.118435
0.081928
-0.0686729
-0.104609
-0.12135
-0.123596
-0.117521
-0.105132
-0.0877237
-0.066331
-0.0416426
-0.0141612
0.0155999
0.0469474
0.07885
0.109788
0.137618
0.15958
0.172721
0.173772
0.155515
0.113565
-0.119408
-0.159362
-0.17492
-0.172763
-0.161153
-0.142934
-0.119764
-0.0927824
-0.0625829
-0.0294531
0.0063676
0.0444679
0.0840495
0.123697
0.161131
0.19308
0.215663
0.224071
0.208045
0.160627
-0.188634
-0.232247
-0.243944
-0.233953
-0.2137
-0.18716
-0.156378
-0.122506
-0.0859032
-0.0464774
-0.00401973
0.0415335
0.0898368
0.139824
0.189314
0.234684
0.271069
0.291659
0.281737
0.229771
-0.28398
-0.32931
-0.331837
-0.308285
-0.274713
-0.236445
-0.195769
-0.153615
-0.109845
-0.0637501
-0.0144428
0.0388585
0.0965493
0.158272
0.222369
0.285283
0.341392
0.38157
0.384909
0.331829
-0.419323
-0.459676
-0.442355
-0.395797
-0.342133
-0.287744
-0.23462
-0.182934
-0.131614
-0.0789894
-0.0232185
0.0374708
0.104549
0.178833
0.259857
0.344966
0.428612
0.499695
0.52967
0.485387
-0.620536
-0.636748
-0.578681
-0.494197
-0.411244
-0.335662
-0.267784
-0.205981
-0.14754
-0.0893869
-0.02843
0.0383443
0.113803
0.200468
0.299971
0.412021
0.533025
0.651771
0.732768
0.722392
-0.935928
-0.878519
-0.741745
-0.597952
-0.474396
-0.372662
-0.288872
-0.217766
-0.153957
-0.0924674
-0.0287209
0.0416921
0.12326
0.220715
0.338922
0.482151
0.651993
0.841338
1.01527
1.0975
-1.47643
-1.20663
-0.920506
-0.691391
-0.517308
-0.387547
-0.290064
-0.21334
-0.148127
-0.0872188
-0.024581
0.0454541
0.128934
0.233068
0.3671
0.542675
0.77129
1.05931
1.40328
1.73014
-2.53965
-1.63055
-1.04444
-0.710962
-0.495754
-0.352096
-0.254534
-0.183586
-0.126172
-0.0735984
-0.0192723
0.0427835
0.119209
0.218779
0.354809
0.54798
0.826389
1.23658
1.91167
2.92419
-4.36667
-2.04464
-0.973545
-0.563184
-0.357849
-0.24015
-0.170122
-0.123786
-0.0874845
-0.0535135
-0.0166578
0.0276572
0.084604
0.161726
0.272408
0.442095
0.718215
1.22571
2.41103
4.84853
)
;

boundaryField
{
    movingWall
    {
        type            zeroGradient;
    }
    fixedWalls
    {
        type            zeroGradient;
    }
    frontAndBack
    {
        type            empty;
    }
}


// ************************************************************************* //
