/*--------------------------------*- C++ -*----------------------------------*\
  =========                 |
  \\      /  F ield         | OpenFOAM: The Open Source CFD Toolbox
   \\    /   O peration     | Website:  https://openfoam.org
    \\  /    A nd           | Version:  8
     \\/     M anipulation  |
\*---------------------------------------------------------------------------*/
FoamFile
{
    version     2.0;
    format      ascii;
    class       volScalarField;
    location    "7";
    object      T;
}
// * * * * * * * * * * * * * * * * * * * * * * * * * * * * * * * * * * * * * //

dimensions      [0 0 0 1 0 0 0];

internalField   nonuniform List<scalar> 
400
(
293.776
295.275
296.712
298.146
299.61
301.069
302.443
303.65
304.63
305.333
305.721
305.76
305.419
304.679
303.538
302.02
300.191
298.16
296.06
294.004
295.38
299.978
304.412
308.872
313.435
317.932
322.071
325.594
328.337
330.194
331.093
330.97
329.774
327.466
324.043
319.566
314.198
308.231
302.045
295.967
297.084
304.938
312.521
320.156
327.902
335.377
342.05
347.542
351.67
354.35
355.53
355.154
353.151
349.439
343.963
336.751
328.009
318.188
307.953
297.888
298.876
310.114
320.973
331.855
342.694
352.815
361.489
368.345
373.313
376.429
377.729
377.191
374.716
370.129
363.222
353.849
342.101
328.51
314.084
299.856
300.732
315.431
329.621
343.699
357.327
369.487
379.369
386.789
391.936
395.062
396.349
395.836
393.393
388.714
381.342
370.779
356.744
339.607
320.738
301.958
302.633
320.822
338.32
355.391
371.279
384.632
394.737
401.812
406.434
409.136
410.261
409.92
407.968
403.976
397.22
386.733
371.576
351.522
328.059
304.235
304.566
326.236
346.934
366.645
384.059
397.576
406.856
412.734
416.257
418.209
419.056
418.957
417.769
415.007
409.759
400.618
385.812
363.983
336.09
306.69
306.527
331.652
355.372
377.206
395.239
407.842
415.385
419.503
421.656
422.758
423.301
423.449
423.085
421.751
418.496
411.646
398.644
376.595
344.893
309.316
308.507
336.999
363.452
386.808
404.513
415.242
420.477
422.687
423.534
423.888
424.173
424.526
424.871
424.851
423.632
419.522
409.448
388.89
354.556
312.129
310.53
342.359
371.273
395.37
411.739
419.899
422.697
423.223
423.046
422.852
422.948
423.428
424.266
425.247
425.77
424.366
417.847
400.342
365.117
315.202
312.575
347.553
378.387
402.552
416.887
422.206
422.828
422.113
421.262
420.738
420.712
421.238
422.328
423.915
425.686
426.583
423.726
410.442
376.473
318.765
314.707
352.802
385.375
408.72
420.274
422.727
421.682
420.221
419.019
418.351
418.262
418.776
419.917
421.732
424.188
426.739
427.21
418.783
388.343
323.34
316.953
357.995
391.28
413.216
421.855
421.977
419.966
418.187
416.872
416.187
416.081
416.565
417.646
419.406
422.032
425.475
428.605
425.116
400.28
329.801
319.416
363.107
397.374
417.107
422.59
420.816
418.287
416.408
415.11
414.462
414.366
414.837
415.853
417.425
419.861
423.447
428.345
429.363
411.731
339.21
322.026
368.867
402.069
419.122
421.91
419.173
416.737
415.033
413.867
413.271
413.184
413.644
414.653
416.043
418.155
421.279
426.955
431.606
422.135
352.365
326.017
373.886
407.196
421.185
421.714
418.571
416.278
414.632
413.505
412.901
412.8
413.165
414.169
415.368
417.21
419.521
425.049
432.067
431.011
369.224
327.811
380.936
410.473
421.034
420.424
417.727
415.908
414.741
414.021
413.619
413.732
413.955
414.858
415.623
417.23
418.631
423.376
431.134
438.033
388.539
336.068
384.906
413.27
421.921
422.091
420.602
419.322
418.212
417.704
417.018
417.081
416.697
417.292
417.184
418.5
419.014
423.02
429.605
443.163
408.168
331.447
390.151
410.078
416.826
419.085
419.056
419.353
418.618
419.007
418.273
419.039
418.391
419.686
419.191
421.393
421.447
426.231
429.719
447.328
426.321
338.156
367.214
382.791
391.851
399.513
404.399
409.961
413.195
418.033
420.226
424.872
426.183
431.02
431.445
436.974
436.434
443.779
442.098
455.689
443.505
)
;

boundaryField
{
    movingWall
    {
        type            fixedValue;
        value           uniform 493;
    }
    fixedWalls
    {
        type            fixedValue;
        value           uniform 293;
    }
    frontAndBack
    {
        type            empty;
    }
}


// ************************************************************************* //
