/*--------------------------------*- C++ -*----------------------------------*\
  =========                 |
  \\      /  F ield         | OpenFOAM: The Open Source CFD Toolbox
   \\    /   O peration     | Website:  https://openfoam.org
    \\  /    A nd           | Version:  8
     \\/     M anipulation  |
\*---------------------------------------------------------------------------*/
FoamFile
{
    version     2.0;
    format      ascii;
    class       volScalarField;
    location    "6e-10";
    object      phi;
}
// * * * * * * * * * * * * * * * * * * * * * * * * * * * * * * * * * * * * * //

dimensions      [1 2 -3 0 0 -1 0];

internalField   nonuniform List<scalar> 
8800
(
-0.645962
-1.94082
-3.24448
-4.56294
-5.90232
-7.26895
-8.66944
-10.1107
-11.6001
-13.1454
-14.7549
-16.4373
-18.2022
-20.0597
-22.0204
-24.0959
-26.2983
-28.6405
-31.1361
-33.7994
-0.643034
-1.932
-3.22969
-4.54203
-5.87507
-7.23509
-8.62864
-10.0626
-11.5442
-13.0812
-14.6819
-16.3549
-18.1097
-19.9564
-21.9056
-23.9689
-26.1584
-28.4871
-30.9684
-33.6169
-0.637207
-1.91446
-3.20026
-4.5004
-5.82083
-7.1677
-8.54744
-9.9668
-11.4329
-12.9535
-14.5365
-16.1907
-17.9254
-19.7505
-21.6769
-23.7158
-25.8795
-28.1809
-30.6337
-33.2524
-0.628542
-1.88838
-3.15649
-4.43849
-5.74015
-7.06745
-8.42662
-9.82424
-11.2673
-12.7632
-14.3199
-15.9459
-17.6505
-19.4435
-21.3355
-23.3379
-25.4628
-27.7233
-30.1332
-32.707
-0.617127
-1.85401
-3.09882
-4.35692
-5.63384
-6.93532
-8.26734
-9.63625
-11.0488
-12.5121
-14.034
-15.6227
-17.2873
-19.0375
-20.8837
-22.8374
-24.9106
-27.1164
-29.4688
-31.9824
-0.603082
-1.81173
-3.02785
-4.25653
-5.50298
-6.77263
-8.07118
-9.40464
-10.7794
-12.2025
-13.6812
-15.2236
-16.8385
-18.5353
-20.3245
-22.2173
-24.2257
-26.363
-28.6431
-31.081
-0.586555
-1.76197
-2.94433
-4.13836
-5.34892
-6.58106
-7.84011
-9.1317
-10.4619
-11.8372
-13.2647
-14.752
-16.3077
-17.9409
-19.6618
-21.4815
-23.4121
-25.4667
-27.6595
-30.0059
-0.567722
-1.70527
-2.84915
-4.00367
-5.17327
-6.36258
-7.57648
-8.82017
-10.0992
-11.4197
-12.7883
-14.2121
-15.6993
-17.2588
-18.9003
-20.6348
-22.4744
-24.4322
-26.5225
-28.761
-0.546786
-1.64223
-2.74332
-3.85389
-4.97791
-6.11951
-7.28308
-8.47327
-9.69514
-10.9542
-12.2565
-13.6089
-15.0187
-16.4946
-18.0458
-19.6832
-21.4185
-23.2651
-25.2374
-27.3514
-0.523976
-1.57355
-2.628
-3.69067
-4.76496
-5.85449
-6.96304
-8.09468
-9.25386
-10.4454
-11.6748
-12.9481
-14.2722
-15.6549
-17.1052
-18.6335
-20.2514
-21.9722
-23.8106
-25.783
-0.499547
-1.49999
-2.50449
-3.5158
-4.53679
-5.57044
-6.61989
-7.68857
-8.78018
-9.89885
-11.0492
-12.2365
-13.467
-14.7476
-16.0867
-17.4942
-18.9814
-20.5616
-22.2498
-24.0629
-0.47377
-1.42237
-2.37415
-3.33127
-4.29597
-5.27057
-6.25753
-7.25952
-8.27945
-9.32057
-10.3866
-11.4819
-12.6116
-13.7818
-14.9999
-16.2752
-17.6185
-19.043
-20.5642
-22.1996
-0.446937
-1.34156
-2.23846
-3.13916
-4.04525
-4.95834
-5.88015
-6.81254
-7.75752
-8.71738
-9.69478
-10.6929
-11.7156
-12.7679
-13.856
-14.9881
-16.1743
-17.4277
-18.7643
-20.2027
-0.419349
-1.25849
-2.09897
-2.94168
-3.78751
-4.63738
-5.4922
-6.35296
-7.2207
-8.09664
-8.98222
-9.87926
-10.7902
-11.7183
-12.6683
-13.6467
-14.6629
-15.7293
-16.8625
-18.0831
-0.391315
-1.17408
-1.95725
-2.74107
-3.52575
-4.31146
-5.09832
-5.88638
-6.67569
-7.46627
-8.2582
-9.05173
-9.84749
-10.6468
-11.4521
-12.2678
-13.1012
-13.964
-14.8733
-15.8527
-0.363145
-1.08927
-1.81488
-2.5396
-3.26296
-3.9844
-4.70322
-5.41857
-6.12942
-6.83455
-7.53257
-8.22199
-8.90129
-9.56927
-10.2255
-10.871
-11.5101
-12.1521
-12.8142
-13.524
-0.335139
-1.00497
-1.67341
-2.33949
-3.00209
-3.65995
-4.31159
-4.95525
-5.58886
-6.20993
-6.81556
-7.40235
-7.96641
-8.50354
-9.00947
-9.48074
-9.9162
-10.3201
-10.7074
-11.1105
-0.307586
-0.92204
-1.53431
-2.14286
-2.74597
-3.34174
-3.92794
-4.50199
-5.06083
-5.60076
-6.1174
-6.60543
-7.05848
-7.46899
-7.82816
-8.12626
-8.35381
-8.50485
-8.58479
-8.62657
-0.280749
-0.841294
-1.39894
-1.95165
-2.4972
-3.03308
-3.55644
-4.06396
-4.55169
-5.0149
-5.44784
-5.84348
-6.19309
-6.48579
-6.70793
-6.84233
-6.86792
-6.76066
-6.50032
-6.09585
-0.254866
-0.763443
-1.26852
-1.76762
-2.25808
-2.73693
-3.20078
-3.64571
-4.06708
-4.4593
-4.81559
-5.12755
-5.3846
-5.57317
-5.67542
-5.66723
-5.51487
-5.16954
-4.56
-3.59362
-0.230137
-0.689095
-1.14406
-1.59223
-2.03058
-2.45578
-2.86405
-3.25104
-3.6116
-3.93963
-4.22767
-4.46653
-4.64459
-4.74685
-4.75334
-4.6363
-4.3548
-3.84263
-2.97652
-1.47536
-0.206726
-0.618741
-1.0264
-1.42665
-1.81624
-2.19157
-2.54861
-2.88277
-3.18867
-3.45994
-3.68895
-3.86631
-3.98038
-4.01632
-3.95479
-3.76984
-3.42539
-2.86967
-2.02807
-0.80669
-0.184754
-0.552744
-0.91614
-1.27174
-1.61615
-1.94563
-2.25607
-2.54277
-2.80035
-3.02253
-3.20185
-3.32939
-3.3943
-3.38325
-3.27967
-3.06288
-2.70724
-2.18258
-1.45941
-0.530016
-0.164299
-0.491341
-0.813676
-1.12804
-1.43097
-1.71875
-1.98725
-2.23188
-2.44745
-2.62797
-2.76654
-2.8551
-2.88418
-2.8427
-2.71777
-2.49476
-2.15811
-1.694
-1.09697
-0.383982
-0.145402
-0.434647
-0.719183
-0.995761
-1.26096
-1.51113
-1.7423
-1.95007
-2.12959
-2.27537
-2.38125
-2.44027
-2.44461
-2.38561
-2.25395
-2.04026
-1.73645
-1.33835
-0.850484
-0.292926
-0.128063
-0.382661
-0.632649
-0.874859
-1.10599
-1.32253
-1.52073
-1.69652
-1.84546
-1.96266
-2.04282
-2.08013
-2.06839
-2.00117
-1.87215
-1.6759
-1.40908
-1.07246
-0.673691
-0.230164
-0.112252
-0.335287
-0.553892
-0.765039
-0.965594
-1.15227
-1.32158
-1.46983
-1.59305
-1.68701
-1.74724
-1.76904
-1.74766
-1.67852
-1.55759
-1.38211
-1.15151
-0.868722
-0.541655
-0.184204
-0.097911
-0.292344
-0.482593
-0.665813
-0.839081
-0.999364
-1.1435
-1.26816
-1.3699
-1.4451
-1.49008
-1.50112
-1.47469
-1.40764
-1.29759
-1.14345
-0.94612
-0.709263
-0.440004
-0.149201
-0.0849589
-0.253584
-0.418321
-0.576539
-0.725554
-0.862612
-0.984875
-1.08943
-1.17328
-1.23342
-1.26684
-1.27068
-1.24235
-1.17977
-1.08167
-0.947972
-0.780259
-0.582206
-0.359897
-0.121798
-0.0732992
-0.218714
-0.360569
-0.496469
-0.623985
-0.740653
-0.843965
-0.93139
-1.00039
-1.04845
-1.07319
-1.07241
-1.04426
-0.987424
-0.901344
-0.786511
-0.644738
-0.479406
-0.295581
-0.0998919
-0.0628235
-0.187402
-0.308771
-0.424781
-0.533266
-0.632048
-0.718944
-0.791779
-0.84842
-0.886815
-0.905066
-0.901515
-0.874862
-0.824317
-0.749774
-0.651991
-0.532775
-0.395099
-0.243127
-0.0820806
-0.0534164
-0.1593
-0.262334
-0.360617
-0.452248
-0.53533
-0.607983
-0.668363
-0.714697
-0.745321
-0.758741
-0.753717
-0.729352
-0.68521
-0.621442
-0.538905
-0.439272
-0.325088
-0.199749
-0.0673837
-0.0449586
-0.134046
-0.220647
-0.303106
-0.37978
-0.44904
-0.509293
-0.558995
-0.596686
-0.621029
-0.630861
-0.62526
-0.603619
-0.565731
-0.511879
-0.442915
-0.360321
-0.266232
-0.163399
-0.0550883
-0.0373302
-0.11128
-0.1831
-0.251381
-0.314724
-0.371759
-0.421154
-0.461637
-0.492022
-0.511247
-0.518414
-0.512844
-0.494133
-0.462216
-0.417428
-0.360554
-0.292865
-0.216119
-0.132525
-0.044659
-0.0304122
-0.0906428
-0.149095
-0.204592
-0.255977
-0.302119
-0.341928
-0.374377
-0.398519
-0.413523
-0.418705
-0.413569
-0.397853
-0.371573
-0.335063
-0.289009
-0.234467
-0.172856
-0.105923
-0.0356819
-0.0240882
-0.0717845
-0.118043
-0.161916
-0.202473
-0.23881
-0.270063
-0.295423
-0.314155
-0.325622
-0.329313
-0.324874
-0.312138
-0.29116
-0.262241
-0.225952
-0.183138
-0.134913
-0.0826292
-0.0278275
-0.0182445
-0.0543639
-0.0893772
-0.122556
-0.153189
-0.180586
-0.204092
-0.223097
-0.237055
-0.245496
-0.248052
-0.244476
-0.234667
-0.218689
-0.196791
-0.16942
-0.137221
-0.10103
-0.0618528
-0.0208263
-0.0127705
-0.0380496
-0.0625454
-0.0857434
-0.107141
-0.126253
-0.14262
-0.15582
-0.165471
-0.171255
-0.172922
-0.170311
-0.163364
-0.152137
-0.136815
-0.117716
-0.0952956
-0.0701341
-0.0429255
-0.0144513
-0.00755821
-0.0225185
-0.0370117
-0.0507311
-0.0633778
-0.0746639
-0.0843179
-0.0920893
-0.0977558
-0.101131
-0.10207
-0.100484
-0.0963412
-0.0896804
-0.0806146
-0.069335
-0.0561108
-0.0412848
-0.0252638
-0.00850451
-0.00250211
-0.00745444
-0.0122515
-0.0167916
-0.0209754
-0.0247074
-0.0278978
-0.0304639
-0.0323322
-0.0334415
-0.033745
-0.0332131
-0.0318366
-0.0296291
-0.0266284
-0.0228983
-0.0185279
-0.0136306
-0.00834039
-0.00280748
-36.6452
-39.6889
-42.9463
-46.4336
-50.1671
-54.1631
-58.4374
-63.0057
-67.8823
-73.0807
-78.6123
-84.4863
-90.7092
-97.284
-104.21
-111.48
-119.085
-127.008
-135.226
-143.711
-36.4473
-39.4752
-42.7165
-46.1875
-49.9047
-53.8846
-58.1436
-62.6972
-67.5607
-72.7475
-78.2698
-84.1374
-90.3574
-96.9332
-103.865
-111.146
-118.768
-126.713
-134.959
-143.478
-36.0519
-39.048
-42.2569
-45.6951
-49.3796
-53.3272
-57.5549
-62.0791
-66.9155
-72.0788
-77.5821
-83.4362
-89.6496
-96.227
-103.169
-110.472
-118.126
-126.116
-134.42
-143.008
-35.46
-38.4081
-41.5679
-44.9565
-48.5912
-52.4898
-56.6698
-61.1487
-65.9435
-71.0702
-76.5434
-82.3759
-88.5778
-95.1559
-102.113
-109.447
-117.149
-125.206
-133.595
-142.288
-34.6729
-37.5565
-40.6502
-43.9717
-47.5391
-51.3708
-55.4857
-59.9025
-64.6396
-69.715
-75.1455
-80.9461
-87.1297
-93.7059
-100.68
-108.053
-115.818
-123.963
-132.467
-141.301
-33.6926
-36.4947
-39.5047
-42.741
-46.2225
-49.9688
-53.9998
-58.3358
-62.9975
-68.0048
-73.3773
-79.1334
-85.2891
-91.8578
-98.8488
-106.266
-114.107
-122.361
-131.009
-140.022
-32.522
-35.225
-38.133
-41.2652
-44.6413
-48.2819
-52.2087
-56.4437
-61.0096
-65.9293
-71.2257
-76.9209
-83.0355
-89.5875
-96.5913
-104.056
-111.982
-120.365
-129.186
-138.417
-31.1643
-33.7502
-36.5373
-39.5454
-42.7954
-46.3091
-50.1094
-54.2206
-58.6679
-63.4772
-68.6754
-74.2891
-80.3445
-86.8656
-93.8732
-101.383
-109.402
-117.931
-126.953
-136.443
-29.6242
-32.0741
-34.7204
-37.5838
-40.6858
-44.0495
-47.6994
-51.6616
-55.964
-60.6362
-65.7094
-71.2157
-77.1877
-83.6571
-90.653
-98.1998
-106.314
-115.002
-124.254
-134.045
-27.907
-30.2015
-32.6866
-35.3835
-38.3145
-41.5037
-44.9769
-48.7623
-52.8904
-57.3944
-62.3103
-67.6765
-73.5334
-79.922
-86.882
-94.4494
-102.653
-111.508
-121.015
-131.152
-26.0192
-28.1384
-30.4411
-32.949
-35.685
-38.6739
-41.9424
-45.5204
-49.4408
-53.7406
-58.4608
-63.6468
-69.3476
-75.6155
-82.5036
-90.0633
-98.3389
-107.362
-117.146
-127.675
-23.9687
-25.8918
-27.9904
-30.2863
-32.8027
-35.5643
-38.5985
-41.936
-45.6119
-49.6664
-54.1457
-59.1021
-64.5947
-70.6887
-77.4538
-84.9611
-93.2774
-102.457
-112.532
-123.499
-21.7639
-23.4698
-25.3423
-27.4033
-29.6752
-32.1822
-34.9512
-38.0131
-41.4043
-45.1675
-49.3533
-54.0211
-59.2404
-65.0908
-71.6618
-79.0499
-87.3523
-96.6567
-107.026
-118.477
-19.4146
-20.8811
-22.5056
-24.3092
-26.3127
-28.5382
-31.0109
-33.761
-36.8247
-40.246
-44.0789
-48.3888
-53.2549
-58.7723
-65.0528
-72.2243
-80.4252
-89.7919
-100.436
-112.414
-16.9301
-18.1345
-19.4899
-21.0153
-22.7281
-24.6468
-26.7934
-29.1953
-31.8873
-34.913
-38.3276
-42.2003
-46.6182
-51.6906
-57.5528
-64.3694
-72.3323
-81.6494
-92.514
-105.052
-14.3188
-15.2371
-16.304
-17.534
-18.9378
-20.5276
-22.3205
-24.3396
-26.6162
-29.1912
-32.1181
-35.4665
-39.3271
-43.819
-49.0984
-55.3681
-62.8854
-71.9592
-82.9186
-96.0268
-11.5838
-12.1909
-12.9551
-13.879
-14.9613
-16.2054
-17.6212
-19.2264
-21.0466
-23.1176
-25.4873
-28.2204
-31.4046
-35.1601
-39.6537
-45.1191
-51.8819
-60.3835
-71.1745
-84.8054
-8.7152
-8.98751
-9.44672
-10.0654
-10.823
-11.7113
-12.7327
-13.8981
-15.2264
-16.7451
-18.4929
-20.5232
-22.9108
-25.7629
-29.2373
-33.5727
-39.1396
-46.5184
-56.5902
-70.5182
-5.66289
-5.59725
-5.77882
-6.1129
-6.55398
-7.08425
-7.70028
-8.40698
-9.21561
-10.1437
-11.2162
-12.4687
-13.9525
-15.7436
-17.9599
-20.7948
-24.5854
-29.9604
-38.1499
-51.5168
-2.24326
-1.95978
-1.9584
-2.05341
-2.19576
-2.37143
-2.57712
-2.81391
-3.08544
-3.39769
-3.75937
-4.18299
-4.68687
-5.29888
-6.06399
-7.06114
-8.44689
-10.5879
-14.5321
-23.9227
-152.428
-161.337
-170.393
-179.548
-188.747
-197.936
-207.06
-216.064
-224.893
-233.497
-152.235
-161.19
-170.296
-179.503
-188.756
-198.002
-207.181
-216.238
-225.118
-233.769
-151.846
-160.891
-170.097
-179.41
-188.775
-198.133
-207.424
-216.589
-225.572
-234.317
-151.249
-160.433
-169.791
-179.267
-188.801
-198.331
-207.792
-217.123
-226.262
-235.152
-150.428
-159.801
-169.366
-179.065
-188.831
-198.596
-208.292
-217.849
-227.201
-236.287
-149.36
-158.976
-168.809
-178.795
-188.861
-198.932
-208.931
-218.78
-228.407
-237.744
-148.017
-157.932
-168.1
-178.445
-188.887
-199.341
-209.718
-219.933
-229.902
-239.552
-146.357
-156.637
-167.212
-177.998
-188.902
-199.826
-210.668
-221.331
-231.718
-241.746
-144.33
-155.047
-166.113
-177.433
-188.897
-200.392
-211.799
-223.003
-233.894
-244.375
-141.873
-153.108
-164.762
-176.722
-188.862
-201.045
-213.132
-224.988
-236.482
-247.499
-138.902
-150.749
-163.104
-175.833
-188.783
-201.794
-214.698
-227.334
-239.546
-251.197
-135.313
-147.881
-161.072
-174.721
-188.645
-202.649
-216.533
-230.103
-243.171
-255.57
-130.969
-144.392
-158.582
-173.335
-188.427
-203.622
-218.683
-233.373
-247.464
-260.748
-125.692
-140.136
-155.529
-171.611
-188.105
-204.731
-221.204
-237.243
-252.565
-266.905
-119.251
-134.93
-151.786
-169.475
-187.653
-205.99
-224.16
-241.83
-258.649
-274.266
-111.332
-128.546
-147.209
-166.849
-187.042
-207.416
-227.616
-247.266
-265.936
-283.141
-101.502
-120.712
-141.657
-163.67
-186.251
-209.017
-231.623
-253.682
-274.687
-293.955
-89.1602
-111.144
-135.038
-159.923
-185.275
-210.778
-236.176
-261.152
-285.174
-307.306
-73.4765
-99.6644
-127.427
-155.708
-184.148
-212.643
-241.152
-269.574
-297.551
-324.016
-53.5647
-86.6105
-119.299
-151.334
-182.965
-214.494
-246.216
-278.442
-311.441
-344.945
-30.2489
-73.9144
-111.823
-147.363
-181.886
-216.15
-250.777
-286.537
-324.825
-369.134
-23.7655
-66.9751
-106.717
-144.407
-181.067
-217.444
-254.204
-292.105
-332.188
-375.902
-21.6036
-63.5037
-103.662
-142.483
-180.531
-218.356
-256.491
-295.49
-335.921
-378.186
-20.7488
-61.7743
-101.944
-141.331
-180.218
-218.956
-257.914
-297.442
-337.82
-379.108
-20.3663
-60.9007
-101.008
-140.68
-180.053
-219.338
-258.766
-298.546
-338.808
-379.532
-20.1821
-60.4541
-100.509
-140.327
-179.975
-219.576
-259.267
-299.166
-339.335
-379.745
-20.09
-60.2245
-100.247
-140.142
-179.946
-219.725
-259.56
-299.515
-339.622
-379.857
-20.0433
-60.1069
-100.112
-140.05
-179.94
-219.819
-259.731
-299.714
-339.781
-379.918
-20.0197
-60.0474
-100.045
-140.007
-179.945
-219.878
-259.833
-299.828
-339.871
-379.952
-20.008
-60.018
-100.012
-139.989
-179.953
-219.917
-259.894
-299.895
-339.922
-379.971
-20.0024
-60.0042
-99.9981
-139.983
-179.962
-219.943
-259.931
-299.934
-339.952
-379.983
-19.9999
-59.9981
-99.9925
-139.983
-179.971
-219.96
-259.955
-299.958
-339.97
-379.989
-19.9989
-59.996
-99.9913
-139.985
-179.977
-219.972
-259.969
-299.972
-339.981
-379.993
-19.9986
-59.9956
-99.9918
-139.987
-179.983
-219.98
-259.979
-299.981
-339.987
-379.995
-19.9987
-59.996
-99.993
-139.99
-179.987
-219.985
-259.985
-299.987
-339.991
-379.997
-19.9989
-59.9966
-99.9944
-139.992
-179.99
-219.99
-259.99
-299.991
-339.994
-379.998
-19.9991
-59.9973
-99.9956
-139.994
-179.993
-219.992
-259.993
-299.994
-339.996
-379.999
-19.9993
-59.9979
-99.9966
-139.996
-179.995
-219.994
-259.995
-299.996
-339.997
-379.999
-19.9995
-59.9984
-99.9974
-139.997
-179.996
-219.996
-259.996
-299.997
-339.998
-379.999
-19.9996
-59.9988
-99.9981
-139.998
-179.997
-219.997
-259.997
-299.998
-339.999
-380
-19.9997
-59.9991
-99.9986
-139.998
-179.998
-219.998
-259.998
-299.998
-339.999
-380
-19.9998
-59.9993
-99.9989
-139.999
-179.998
-219.998
-259.999
-299.999
-339.999
-380
-19.9998
-59.9995
-99.9992
-139.999
-179.999
-219.999
-259.999
-299.999
-339.999
-380
-19.9999
-59.9996
-99.9994
-139.999
-179.999
-219.999
-259.999
-299.999
-340
-380
-19.9999
-59.9997
-99.9996
-139.999
-179.999
-219.999
-259.999
-300
-340
-380
-19.9999
-59.9998
-99.9997
-140
-180
-220
-260
-300
-340
-380
-19.9999
-59.9999
-99.9998
-140
-180
-220
-260
-300
-340
-380
-20
-59.9999
-99.9998
-140
-180
-220
-260
-300
-340
-380
-20
-59.9999
-99.9999
-140
-180
-220
-260
-300
-340
-380
-20
-59.9999
-99.9999
-140
-180
-220
-260
-300
-340
-380
-20
-60
-99.9999
-140
-180
-220
-260
-300
-340
-380
-20
-60
-100
-140
-180
-220
-260
-300
-340
-380
-20
-60
-100
-140
-180
-220
-260
-300
-340
-380
-20
-60
-100
-140
-180
-220
-260
-300
-340
-380
-20
-60
-100
-140
-180
-220
-260
-300
-340
-380
-20
-60
-100
-140
-180
-220
-260
-300
-340
-380
-20
-60
-100
-140
-180
-220
-260
-300
-340
-380
-20
-60
-100
-140
-180
-220
-260
-300
-340
-380
-20
-60
-100
-140
-180
-220
-260
-300
-340
-380
-20
-60
-100
-140
-180
-220
-260
-300
-340
-380
-20
-60
-100
-140
-180
-220
-260
-300
-340
-380
-20
-60
-100
-140
-180
-220
-260
-300
-340
-380
-20
-60
-100
-140
-180
-220
-260
-300
-340
-380
-20
-60
-100
-140
-180
-220
-260
-300
-340
-380
-20
-60
-100
-140
-180
-220
-260
-300
-340
-380
-20
-60
-100
-140
-180
-220
-260
-300
-340
-380
-20
-60
-100
-140
-180
-220
-260
-300
-340
-380
-20
-60
-100
-140
-180
-220
-260
-300
-340
-380
-20
-60
-100
-140
-180
-220
-260
-300
-340
-380
-20
-60
-100
-140
-180
-220
-260
-300
-340
-380
-20
-60
-100
-140
-180
-220
-260
-300
-340
-380
-20
-60
-100
-140
-180
-220
-260
-300
-340
-380
-20
-60
-99.9999
-140
-180
-220
-260
-300
-340
-380
-20
-59.9999
-99.9999
-140
-180
-220
-260
-300
-340
-380
-20
-59.9999
-99.9999
-140
-180
-220
-260
-300
-340
-380
-20
-59.9999
-99.9998
-140
-180
-220
-260
-300
-340
-380
-19.9999
-59.9999
-99.9998
-140
-180
-220
-260
-300
-340
-380
-19.9999
-59.9998
-99.9997
-140
-180
-220
-260
-300
-340
-380
-19.9999
-59.9997
-99.9996
-139.999
-179.999
-219.999
-259.999
-300
-340
-380
-19.9999
-59.9996
-99.9994
-139.999
-179.999
-219.999
-259.999
-299.999
-340
-380
-19.9998
-59.9995
-99.9992
-139.999
-179.999
-219.999
-259.999
-299.999
-339.999
-380
-19.9998
-59.9993
-99.9989
-139.999
-179.998
-219.998
-259.999
-299.999
-339.999
-380
-19.9997
-59.999
-99.9985
-139.998
-179.998
-219.998
-259.998
-299.998
-339.999
-380
-19.9995
-59.9987
-99.9979
-139.997
-179.997
-219.997
-259.997
-299.998
-339.999
-380
-19.9994
-59.9982
-99.9972
-139.996
-179.996
-219.996
-259.996
-299.997
-339.998
-379.999
-19.9992
-59.9975
-99.9962
-139.995
-179.995
-219.995
-259.995
-299.996
-339.998
-379.999
-19.9988
-59.9966
-99.9948
-139.993
-179.993
-219.993
-259.993
-299.995
-339.997
-379.999
-19.9984
-59.9954
-99.9929
-139.991
-179.99
-219.99
-259.991
-299.993
-339.995
-379.998
-19.9978
-59.9937
-99.9902
-139.988
-179.986
-219.986
-259.988
-299.99
-339.994
-379.998
-19.9971
-59.9915
-99.9867
-139.983
-179.981
-219.981
-259.983
-299.987
-339.991
-379.997
-19.996
-59.9883
-99.9818
-139.977
-179.975
-219.975
-259.977
-299.982
-339.988
-379.996
-19.9945
-59.9841
-99.9752
-139.969
-179.965
-219.965
-259.969
-299.975
-339.984
-379.995
-19.9925
-59.9782
-99.9661
-139.957
-179.953
-219.953
-259.957
-299.966
-339.978
-379.992
-19.9898
-59.9703
-99.9537
-139.942
-179.935
-219.935
-259.942
-299.954
-339.97
-379.99
-19.986
-59.9594
-99.9368
-139.92
-179.912
-219.912
-259.92
-299.937
-339.959
-379.986
-19.9809
-59.9446
-99.9137
-139.891
-179.879
-219.879
-259.891
-299.914
-339.945
-379.981
-19.9739
-59.9243
-99.8821
-139.851
-179.835
-219.835
-259.851
-299.882
-339.924
-379.974
-19.9644
-59.8967
-99.839
-139.797
-179.775
-219.775
-259.797
-299.839
-339.896
-379.964
-19.9514
-59.859
-99.7803
-139.723
-179.693
-219.693
-259.723
-299.78
-339.859
-379.951
-19.9337
-59.8075
-99.7001
-139.622
-179.581
-219.58
-259.621
-299.699
-339.807
-379.933
-19.9095
-59.7373
-99.5906
-139.484
-179.427
-219.427
-259.482
-299.589
-339.736
-379.909
-19.8765
-59.6416
-99.4413
-139.295
-179.218
-219.217
-259.293
-299.438
-339.639
-379.876
-19.8316
-59.5111
-99.2378
-139.038
-178.932
-218.93
-259.034
-299.232
-339.506
-379.83
-19.7705
-59.3335
-98.9606
-138.688
-178.542
-218.539
-258.679
-298.95
-339.325
-379.767
-19.6874
-59.0919
-98.583
-138.21
-178.01
-218.004
-258.194
-298.563
-339.076
-379.681
-19.5745
-58.7635
-98.0696
-137.56
-177.284
-217.273
-257.53
-298.033
-338.734
-379.563
-19.4214
-58.3181
-97.3722
-136.674
-176.294
-216.273
-256.62
-297.305
-338.264
-379.401
-19.2145
-57.7154
-96.4268
-135.471
-174.945
-214.907
-255.372
-296.304
-337.616
-379.176
-18.9357
-56.9023
-95.1484
-133.839
-173.106
-213.037
-253.657
-294.923
-336.719
-378.866
-18.5616
-55.8097
-93.4254
-131.63
-170.605
-210.478
-251.295
-293.01
-335.473
-378.433
-18.0627
-54.3496
-91.1139
-128.649
-167.208
-206.973
-248.035
-290.351
-333.73
-377.825
-17.4023
-52.412
-88.0314
-124.646
-162.602
-202.174
-243.52
-286.63
-331.27
-376.964
-16.5368
-49.8647
-83.9536
-119.302
-156.38
-195.599
-237.243
-281.379
-327.755
-375.724
-15.4171
-46.5565
-78.6167
-112.226
-148.019
-186.601
-228.472
-273.887
-322.647
-373.9
-13.9923
-42.3273
-71.7308
-102.968
-136.867
-174.312
-216.16
-263.05
-315.046
-371.13
-12.2168
-37.0297
-63.0115
-91.046
-122.171
-157.621
-198.804
-247.108
-303.356
-366.703
-10.0622
-30.5632
-52.2396
-76.0337
-103.15
-135.197
-174.326
-223.223
-284.566
-359.03
-7.53102
-22.9214
-39.3498
-57.6992
-79.1983
-105.693
-140.078
-186.892
-252.655
-343.883
-4.67143
-14.2417
-24.5389
-36.2151
-50.2509
-68.2973
-93.4027
-131.612
-195.28
-307.728
-1.58441
-4.83504
-8.34908
-12.3715
-17.293
-23.8428
-33.6235
-50.8722
-89.1255
-199.476
-241.83
-249.848
-257.515
-264.8
-271.676
-278.125
-284.131
-289.685
-294.782
-299.42
-303.603
-307.336
-310.626
-313.484
-315.921
-317.95
-319.586
-320.843
-321.739
-322.288
-242.144
-250.199
-257.898
-265.208
-272.105
-278.568
-284.583
-290.142
-295.24
-299.876
-304.054
-307.778
-311.059
-313.905
-316.329
-318.344
-319.964
-321.206
-322.084
-322.617
-242.777
-250.907
-258.668
-266.03
-272.966
-279.458
-285.492
-291.06
-296.16
-300.79
-304.957
-308.665
-311.925
-314.748
-317.145
-319.132
-320.722
-321.931
-322.776
-323.274
-243.741
-251.983
-259.839
-267.277
-274.272
-280.806
-286.867
-292.448
-297.548
-302.169
-306.317
-310
-313.229
-316.016
-318.373
-320.316
-321.86
-323.02
-323.815
-324.261
-245.051
-253.445
-261.427
-268.967
-276.039
-282.627
-288.721
-294.317
-299.415
-304.021
-308.143
-311.79
-314.976
-317.712
-320.015
-321.899
-323.381
-324.476
-325.203
-325.579
-246.732
-255.317
-263.459
-271.124
-278.29
-284.942
-291.073
-296.683
-301.775
-306.358
-310.442
-314.042
-317.171
-319.843
-322.076
-323.885
-325.288
-326.3
-326.941
-327.229
-248.814
-257.634
-265.967
-273.781
-281.055
-287.778
-293.947
-299.566
-304.643
-309.192
-313.227
-316.765
-319.822
-322.414
-324.561
-326.278
-327.584
-328.496
-329.033
-329.213
-251.339
-260.437
-268.994
-276.978
-284.372
-291.168
-297.371
-302.99
-308.041
-312.541
-316.51
-319.969
-322.936
-325.432
-327.475
-329.083
-330.274
-331.067
-331.48
-331.533
-254.36
-263.782
-272.594
-280.766
-288.285
-295.152
-301.379
-306.983
-311.988
-316.42
-320.303
-323.663
-326.522
-328.902
-330.823
-332.304
-333.363
-334.018
-334.288
-334.192
-257.942
-267.737
-276.834
-285.207
-292.851
-299.777
-306.008
-311.575
-316.51
-320.848
-324.621
-327.858
-330.587
-332.832
-334.612
-335.948
-336.856
-337.354
-337.46
-337.195
-262.173
-272.39
-281.798
-290.377
-298.134
-305.096
-311.302
-316.798
-321.629
-325.841
-329.473
-332.562
-335.137
-337.225
-338.846
-340.019
-340.759
-341.082
-341.004
-340.546
-267.163
-277.853
-287.591
-296.368
-304.212
-311.171
-317.307
-322.685
-327.368
-331.413
-334.869
-337.778
-340.175
-342.085
-343.529
-344.523
-345.079
-345.21
-344.929
-344.255
-273.055
-284.269
-294.345
-303.294
-311.174
-318.069
-324.07
-329.268
-333.745
-337.574
-340.812
-343.508
-345.698
-347.41
-348.661
-349.464
-349.825
-349.749
-349.247
-348.332
-280.039
-291.825
-302.224
-311.287
-319.122
-325.86
-331.636
-336.571
-340.772
-344.324
-347.297
-349.743
-351.701
-353.196
-354.243
-354.847
-355.006
-354.717
-353.976
-352.795
-288.37
-300.768
-311.441
-320.51
-328.166
-334.614
-340.042
-344.609
-348.447
-351.654
-354.309
-356.467
-358.166
-359.43
-360.268
-360.675
-360.637
-360.134
-359.147
-357.673
-298.408
-311.435
-322.26
-331.146
-338.419
-344.387
-349.307
-353.378
-356.751
-359.537
-361.817
-363.649
-365.067
-366.091
-366.723
-366.947
-366.733
-366.036
-364.807
-363.013
-310.686
-324.302
-335.02
-343.393
-349.975
-355.21
-359.423
-362.846
-365.642
-367.925
-369.775
-371.243
-372.362
-373.145
-373.585
-373.658
-373.312
-372.47
-371.03
-368.897
-326.08
-340.067
-350.126
-357.433
-362.88
-367.054
-370.327
-372.94
-375.046
-376.748
-378.114
-379.188
-379.994
-380.54
-380.815
-380.786
-380.387
-379.501
-377.946
-375.484
-346.261
-359.761
-367.983
-373.331
-377.057
-379.797
-381.894
-383.54
-384.853
-385.906
-386.745
-387.4
-387.886
-388.206
-388.35
-388.286
-387.949
-387.202
-385.771
-383.119
-375.188
-384.732
-388.714
-390.853
-392.219
-393.185
-393.911
-394.474
-394.921
-395.277
-395.561
-395.781
-395.943
-396.048
-396.091
-396.059
-395.919
-395.587
-394.816
-392.723
-322.509
-322.418
-322.034
-321.375
-320.456
-319.297
-317.914
-316.322
-314.538
-312.578
-310.454
-308.18
-305.769
-303.233
-300.582
-297.827
-294.976
-292.038
-289.022
-285.934
-282.781
-279.569
-276.303
-272.989
-269.631
-266.233
-262.8
-259.335
-255.841
-252.321
-248.777
-245.213
-241.631
-238.033
-234.421
-230.796
-227.16
-223.515
-219.862
-216.203
-212.538
-208.869
-205.197
-201.523
-197.847
-194.17
-190.494
-186.818
-183.143
-179.471
-175.801
-172.133
-168.469
-164.809
-161.153
-157.5
-153.853
-150.21
-146.573
-142.94
-139.313
-135.692
-132.076
-128.466
-124.861
-121.262
-117.67
-114.083
-110.502
-106.926
-103.357
-99.7927
-96.2345
-92.6818
-89.1345
-85.5925
-82.0558
-78.5241
-74.9973
-71.4753
-67.9579
-64.445
-60.9363
-57.4317
-53.9309
-50.4339
-46.9402
-43.4499
-39.9625
-36.478
-32.996
-29.5164
-26.0389
-22.5632
-19.0892
-15.6166
-12.145
-8.67439
-5.20438
-1.73475
-322.82
-322.712
-322.31
-321.633
-320.698
-319.521
-318.121
-316.514
-314.716
-312.741
-310.603
-308.317
-305.895
-303.347
-300.687
-297.922
-295.063
-292.117
-289.094
-285.999
-282.84
-279.622
-276.351
-273.033
-269.67
-266.269
-262.832
-259.364
-255.866
-252.344
-248.798
-245.232
-241.648
-238.047
-234.433
-230.806
-227.169
-223.523
-219.869
-216.208
-212.543
-208.873
-205.2
-201.524
-197.847
-194.17
-190.493
-186.817
-183.142
-179.468
-175.798
-172.13
-168.466
-164.805
-161.148
-157.496
-153.848
-150.205
-146.567
-142.935
-139.308
-135.686
-132.07
-128.46
-124.855
-121.257
-117.664
-114.077
-110.496
-106.92
-103.351
-99.7871
-96.2289
-92.6763
-89.1291
-85.5873
-82.0507
-78.5191
-74.9925
-71.4707
-67.9535
-64.4407
-60.9322
-57.4278
-53.9273
-50.4304
-46.937
-43.4468
-39.9597
-36.4754
-32.9937
-29.5143
-26.037
-22.5616
-19.0878
-15.6154
-12.1442
-8.67376
-5.204
-1.73463
-323.443
-323.299
-322.862
-322.15
-321.179
-319.969
-318.537
-316.898
-315.069
-313.066
-310.902
-308.59
-306.145
-303.576
-300.895
-298.112
-295.235
-292.274
-289.237
-286.129
-282.957
-279.729
-276.448
-273.12
-269.749
-266.34
-262.896
-259.421
-255.918
-252.39
-248.839
-245.268
-241.68
-238.076
-234.458
-230.828
-227.188
-223.538
-219.882
-216.219
-212.551
-208.879
-205.204
-201.527
-197.849
-194.17
-190.491
-186.814
-183.138
-179.464
-175.792
-172.124
-168.458
-164.797
-161.14
-157.487
-153.839
-150.195
-146.557
-142.924
-139.297
-135.675
-132.059
-128.448
-124.844
-121.245
-117.652
-114.065
-110.484
-106.909
-103.34
-99.7759
-96.2179
-92.6654
-89.1185
-85.5769
-82.0405
-78.5093
-74.983
-71.4615
-67.9446
-64.4322
-60.9241
-57.4201
-53.9199
-50.4235
-46.9305
-43.4408
-39.9541
-36.4703
-32.989
-29.5101
-26.0333
-22.5584
-19.0851
-15.6132
-12.1424
-8.6725
-5.20325
-1.73437
-324.377
-324.18
-323.689
-322.924
-321.901
-320.64
-319.158
-317.472
-315.598
-313.552
-311.347
-308.999
-306.518
-303.916
-301.205
-298.395
-295.493
-292.509
-289.449
-286.322
-283.133
-279.887
-276.592
-273.25
-269.866
-266.446
-262.991
-259.507
-255.995
-252.458
-248.9
-245.322
-241.728
-238.118
-234.494
-230.86
-227.215
-223.561
-219.901
-216.235
-212.563
-208.888
-205.211
-201.531
-197.85
-194.17
-190.489
-186.81
-183.132
-179.456
-175.783
-172.114
-168.447
-164.785
-161.127
-157.473
-153.824
-150.18
-146.541
-142.908
-139.28
-135.658
-132.041
-128.431
-124.826
-121.227
-117.635
-114.048
-110.467
-106.892
-103.322
-99.7589
-96.2012
-92.6491
-89.1025
-85.5612
-82.0253
-78.4945
-74.9686
-71.4476
-67.9313
-64.4194
-60.9119
-57.4084
-53.9089
-50.4131
-46.9207
-43.4317
-39.9457
-36.4625
-32.9819
-29.5037
-26.0277
-22.5535
-19.0809
-15.6098
-12.1397
-8.67061
-5.20211
-1.73399
-325.623
-325.355
-324.792
-323.954
-322.861
-321.531
-319.983
-318.233
-316.299
-314.196
-311.938
-309.539
-307.011
-304.367
-301.616
-298.768
-295.833
-292.818
-289.73
-286.577
-283.364
-280.097
-276.781
-273.421
-270.021
-266.585
-263.117
-259.619
-256.096
-252.548
-248.98
-245.394
-241.791
-238.173
-234.543
-230.901
-227.251
-223.592
-219.926
-216.255
-212.579
-208.901
-205.219
-201.536
-197.853
-194.169
-190.486
-186.804
-183.124
-179.446
-175.771
-172.1
-168.432
-164.768
-161.109
-157.454
-153.804
-150.16
-146.52
-142.886
-139.258
-135.635
-132.018
-128.408
-124.803
-121.204
-117.611
-114.024
-110.443
-106.868
-103.299
-99.7363
-96.1789
-92.6272
-89.081
-85.5403
-82.0049
-78.4747
-74.9495
-71.4291
-67.9135
-64.4023
-60.8955
-57.3929
-53.8941
-50.3991
-46.9077
-43.4195
-39.9344
-36.4522
-32.9725
-29.4953
-26.0202
-22.547
-19.0754
-15.6052
-12.1362
-8.66808
-5.20059
-1.73349
-327.183
-326.823
-326.169
-325.241
-324.058
-322.642
-321.009
-319.18
-317.169
-314.994
-312.669
-310.207
-307.622
-304.923
-302.123
-299.23
-296.253
-293.199
-290.076
-286.891
-283.649
-280.355
-277.015
-273.632
-270.212
-266.757
-263.272
-259.758
-256.22
-252.66
-249.079
-245.481
-241.868
-238.241
-234.602
-230.953
-227.294
-223.629
-219.957
-216.28
-212.599
-208.915
-205.229
-201.542
-197.855
-194.167
-190.481
-186.796
-183.113
-179.433
-175.756
-172.083
-168.413
-164.748
-161.087
-157.431
-153.78
-150.134
-146.493
-142.859
-139.23
-135.607
-131.989
-128.378
-124.773
-121.174
-117.581
-113.995
-110.414
-106.839
-103.271
-99.7079
-96.151
-92.5998
-89.0542
-85.5141
-81.9794
-78.4499
-74.9254
-71.4059
-67.8911
-64.3809
-60.875
-57.3734
-53.8757
-50.3817
-46.8913
-43.4043
-39.9203
-36.4392
-32.9608
-29.4847
-26.0108
-22.5388
-19.0685
-15.5995
-12.1318
-8.66491