/*--------------------------------*- C++ -*----------------------------------*\
  =========                 |
  \\      /  F ield         | OpenFOAM: The Open Source CFD Toolbox
   \\    /   O peration     | Website:  https://openfoam.org
    \\  /    A nd           | Version:  8
     \\/     M anipulation  |
\*---------------------------------------------------------------------------*/
FoamFile
{
    version     2.0;
    format      ascii;
    class       volScalarField;
    location    "7.8";
    object      T;
}
// * * * * * * * * * * * * * * * * * * * * * * * * * * * * * * * * * * * * * //

dimensions      [0 0 0 1 0 0 0];

internalField   nonuniform List<scalar> 
400
(
293.785
295.303
296.756
298.204
299.681
301.15
302.533
303.749
304.733
305.439
305.827
305.862
305.516
304.768
303.616
302.086
300.243
298.197
296.082
294.011
295.41
300.064
304.545
309.047
313.647
318.178
322.344
325.889
328.644
330.507
331.402
331.269
330.055
327.721
324.267
319.754
314.346
308.337
302.109
295.988
297.135
305.082
312.745
320.448
328.254
335.784
342.5
348.025
352.172
354.858
356.03
355.634
353.598
349.843
344.315
337.045
328.24
318.354
308.052
297.921
298.948
310.316
321.286
332.263
343.186
353.379
362.112
369.011
374.005
377.128
378.415
377.847
375.324
370.675
363.694
354.24
342.406
328.727
314.214
299.899
300.825
315.691
330.024
344.222
357.956
370.209
380.167
387.644
392.826
395.964
397.236
396.683
394.176
389.413
381.941
371.269
357.122
339.875
320.897
302.01
302.747
321.14
338.811
356.029
372.048
385.517
395.722
402.875
407.549
410.271
411.381
410.991
408.956
404.853
397.965
387.335
372.034
351.841
328.247
304.297
304.701
326.613
347.514
367.4
384.974
398.639
408.05
414.037
417.634
419.619
420.453
420.293
419
416.094
410.676
401.35
386.36
364.359
336.308
306.76
306.684
332.088
356.043
378.084
396.313
409.104
416.82
421.082
423.337
424.488
425.02
425.096
424.601
423.087
419.616
412.53
399.295
377.033
345.143
309.396
308.687
337.497
364.219
387.818
405.761
416.728
422.186
424.583
425.564
425.984
426.261
426.529
426.717
426.475
424.989
420.585
410.22
389.397
354.84
312.218
310.734
342.915
372.136
396.521
413.181
421.637
424.714
425.475
425.465
425.358
425.449
425.833
426.485
427.202
427.4
425.638
418.759
400.93
365.438
315.301
312.807
348.187
379.363
403.86
418.546
424.225
425.186
424.753
424.106
423.689
423.665
424.084
424.96
426.239
427.626
428.094
424.802
411.123
376.837
318.874
314.961
353.484
386.455
410.193
422.167
425.051
424.405
423.275
422.31
421.771
421.69
422.088
422.991
424.457
426.471
428.521
428.475
419.572
388.755
323.461
317.249
358.793
392.501
414.882
424.007
424.624
423.065
421.658
420.61
420.072
419.981
420.344
421.169
422.547
424.682
427.555
430.084
426.031
400.748
329.938
319.724
363.928
398.708
418.961
425.001
423.782
421.747
420.268
419.256
418.766
418.691
419.042
419.795
420.968
422.88
425.841
430.061
430.423
412.267
339.369
322.42
369.873
403.584
421.201
424.593
422.437
420.506
419.202
418.319
417.879
417.819
418.166
418.925
419.921
421.505
423.978
428.922
432.83
422.749
352.555
326.383
374.878
408.826
423.441
424.602
422.036
420.22
418.942
418.069
417.605
417.53
417.801
418.587
419.434
420.79
422.472
427.255
433.467
431.718
369.457
328.366
382.214
412.324
423.487
423.455
421.248
419.813
418.93
418.402
418.101
418.232
418.383
419.122
419.614
420.831
421.696
425.76
432.703
438.841
388.83
336.509
386.097
415.138
424.341
424.958
423.812
422.787
421.856
421.467
420.841
420.916
420.487
420.986
420.705
421.773
421.915
425.408
431.278
444.065
408.527
332.181
391.706
412.024
419.032
421.481
421.582
421.975
421.297
421.727
421.003
421.768
421.087
422.338
421.753
423.843
423.703
428.23
431.269
448.251
426.741
338.47
367.881
383.617
392.76
400.477
405.391
410.976
414.216
419.064
421.25
425.899
427.191
432.025
432.417
437.93
437.328
444.629
442.82
456.31
443.921
)
;

boundaryField
{
    movingWall
    {
        type            fixedValue;
        value           uniform 493;
    }
    fixedWalls
    {
        type            fixedValue;
        value           uniform 293;
    }
    frontAndBack
    {
        type            empty;
    }
}


// ************************************************************************* //
