/*--------------------------------*- C++ -*----------------------------------*\
  =========                 |
  \\      /  F ield         | OpenFOAM: The Open Source CFD Toolbox
   \\    /   O peration     | Website:  https://openfoam.org
    \\  /    A nd           | Version:  8
     \\/     M anipulation  |
\*---------------------------------------------------------------------------*/
FoamFile
{
    version     2.0;
    format      ascii;
    class       volScalarField;
    location    "8";
    object      T;
}
// * * * * * * * * * * * * * * * * * * * * * * * * * * * * * * * * * * * * * //

dimensions      [0 0 0 1 0 0 0];

internalField   nonuniform List<scalar> 
400
(
293.787
295.309
296.765
298.216
299.695
301.167
302.552
303.769
304.755
305.461
305.849
305.884
305.536
304.786
303.632
302.1
300.254
298.204
296.087
294.013
295.416
300.082
304.573
309.084
313.691
318.228
322.401
325.95
328.708
330.572
331.467
331.331
330.113
327.775
324.314
319.793
314.377
308.359
302.122
295.992
297.145
305.111
312.791
320.508
328.328
335.868
342.594
348.125
352.276
354.963
356.134
355.734
353.691
349.927
344.388
337.107
328.288
318.388
308.072
297.927
298.963
310.358
321.351
332.348
343.288
353.497
362.242
369.15
374.148
377.273
378.558
377.983
375.451
370.789
363.793
354.321
342.47
328.772
314.242
299.908
300.844
315.745
330.107
344.33
358.086
370.359
380.333
387.822
393.011
396.151
397.42
396.859
394.339
389.558
382.065
371.371
357.201
339.93
320.93
302.021
302.77
321.207
338.913
356.161
372.208
385.701
395.927
403.096
407.781
410.507
411.615
411.214
409.162
405.035
398.12
387.461
372.13
351.907
328.286
304.309
304.729
326.691
347.635
367.557
385.165
398.86
408.299
414.308
417.921
419.913
420.744
420.571
419.256
416.321
410.867
401.503
386.474
364.437
336.354
306.775
306.717
332.178
356.182
378.267
396.536
409.366
417.118
421.411
423.687
424.848
425.378
425.439
424.917
423.365
419.849
412.714
399.431
377.124
345.194
309.412
308.725
337.6
364.378
388.028
406.021
417.037
422.541
424.978
425.987
426.421
426.696
426.946
427.101
426.814
425.271
420.807
410.381
389.503
354.899
312.236
310.776
343.03
372.316
396.76
413.481
421.999
425.134
425.944
425.969
425.88
425.971
426.334
426.948
427.609
427.739
425.902
418.949
401.052
365.505
315.321
312.855
348.318
379.566
404.133
418.891
424.645
425.677
425.304
424.698
424.304
424.28
424.676
425.509
426.723
428.03
428.408
425.026
411.264
376.912
318.897
315.013
353.626
386.68
410.5
422.562
425.535
424.972
423.911
422.996
422.483
422.404
422.778
423.632
425.024
426.947
428.892
428.738
419.736
388.841
323.486
317.31
358.958
392.756
415.229
424.455
425.175
423.711
422.381
421.389
420.881
420.793
421.131
421.903
423.201
425.234
427.988
430.392
426.221
400.846
329.967
319.788
364.099
398.986
419.346
425.504
424.4
422.468
421.072
420.12
419.663
419.592
419.918
420.617
421.706
423.508
426.339
430.418
430.644
412.378
339.402
322.501
370.082
403.9
421.634
425.151
423.118
421.292
420.071
419.247
418.84
418.784
419.109
419.815
420.73
422.203
424.54
429.331
433.085
422.877
352.594
326.46
375.085
409.166
423.911
425.204
422.758
421.042
419.84
419.021
418.586
418.516
418.767
419.507
420.281
421.536
423.087
427.715
433.759
431.865
369.506
328.482
382.48
412.71
423.998
424.086
421.981
420.627
419.803
419.314
419.036
419.17
419.306
420.011
420.445
421.582
422.335
426.256
433.03
439.01
388.891
336.601
386.345
415.527
424.845
425.555
424.481
423.509
422.615
422.251
421.637
421.716
421.277
421.756
421.439
422.455
422.519
425.905
431.626
444.252
408.602
332.334
392.03
412.43
419.491
421.98
422.108
422.521
421.855
422.294
421.571
422.336
421.649
422.89
422.287
424.354
424.172
428.646
431.592
448.444
426.829
338.536
368.019
383.789
392.949
400.678
405.597
411.188
414.428
419.278
421.463
426.113
427.401
432.234
432.619
438.129
437.514
444.806
442.97
456.439
444.008
)
;

boundaryField
{
    movingWall
    {
        type            fixedValue;
        value           uniform 493;
    }
    fixedWalls
    {
        type            fixedValue;
        value           uniform 293;
    }
    frontAndBack
    {
        type            empty;
    }
}


// ************************************************************************* //
