/*--------------------------------*- C++ -*----------------------------------*\
  =========                 |
  \\      /  F ield         | OpenFOAM: The Open Source CFD Toolbox
   \\    /   O peration     | Website:  https://openfoam.org
    \\  /    A nd           | Version:  8
     \\/     M anipulation  |
\*---------------------------------------------------------------------------*/
FoamFile
{
    version     2.0;
    format      ascii;
    class       volScalarField;
    location    "1.1";
    object      T;
}
// * * * * * * * * * * * * * * * * * * * * * * * * * * * * * * * * * * * * * //

dimensions      [0 0 0 1 0 0 0];

internalField   nonuniform List<scalar> 
400
(
293.011
293.04
293.111
293.273
293.588
294.102
294.802
295.605
296.402
297.093
297.61
297.907
297.954
297.735
297.257
296.553
295.698
294.804
293.987
293.305
293.037
293.156
293.444
294.104
295.375
297.389
300.01
302.861
305.524
307.705
309.244
310.048
310.057
309.239
307.604
305.239
302.352
299.289
296.449
294.063
293.091
293.384
294.102
295.726
298.754
303.311
308.856
314.44
319.288
323.038
325.57
326.827
326.741
325.237
322.261
317.86
312.301
306.168
300.281
295.237
293.192
293.808
295.315
298.63
304.507
312.717
321.792
329.988
336.431
341.084
344.103
345.576
345.459
343.585
339.706
333.625
325.416
315.715
305.804
296.947
293.365
294.52
297.299
303.172
312.875
325.099
336.853
345.893
352.097
356.265
358.942
360.385
360.548
359.107
355.504
349.077
339.365
326.656
312.49
299.063
293.632
295.594
300.189
309.366
323.18
338.282
350.15
357.337
361.525
364.284
366.294
367.856
368.837
368.757
366.729
361.549
351.969
337.475
319.488
301.316
294.01
297.06
303.942
316.77
333.908
349.391
358.384
362.042
363.869
365.302
366.898
368.896
371.103
372.976
373.429
370.763
362.827
347.84
326.54
303.556
294.517
298.982
308.496
324.659
343.361
356.42
360.754
360.987
361.016
361.407
362.75
365.187
368.644
372.61
376.017
376.822
372.001
358.05
334.04
305.834
295.092
300.989
313.133
332.057
350.32
358.853
358.336
356.084
354.677
354.074
355.086
357.735
362.19
368.033
374.423
379.25
378.859
367.848
342.349
308.265
295.913
303.932
318.65
338.743
354.276
357.213
352.706
348.813
346.06
344.574
345.176
347.839
352.923
360.187
369.143
377.964
382.771
376.535
351.485
310.951
296.489
305.584
322.505
343.221
355.001
352.546
345.29
340.292
336.355
334.247
334.41
336.941
342.231
350.336
361.143
373.424
383.57
383.486
361.255
314.1
297.806
309.975
328.298
347.289
353.618
346.092
337.201
331.472
326.699
324.247
323.984
326.264
331.374
339.692
351.487
366.316
381.379
388.232
371.313
318.187
297.973
310.059
330.122
347.618
349.138
338.438
329.304
323.226
318.068
315.487
314.869
316.808
321.471
329.433
341.32
357.523
376.568
390.485
381.16
324.009
300.457
316.645
335.851
349.289
345.218
331.936
322.727
316.35
311.214
308.644
307.779
309.31
313.404
320.609
331.799
348.079
369.734
390.163
390.196
332.518
298.91
314.136
334.946
345.68
338.085
324.616
316.714
311.11
306.696
304.323
303.325
304.387
307.872
314.132
324.078
339.18
361.719
387.404
397.817
344.385
305.316
323.552
340.874
346.543
335.582
322.338
315.197
309.959
305.815
303.327
302.199
302.792
305.649
310.871
319.321
332.239
353.725
382.63
403.535
359.457
298.001
317.923
336.296
339.972
329.273
318.223
312.494
308.949
306.445
304.991
304.703
305.48
307.995
312.058
318.903
329.04
347.625
376.789
407.143
376.462
313.328
330.333
343.94
345.297
337.21
328.682
323.034
319.321
317.133
315.662
315.451
315.684
317.484
319.946
325.051
332.26
346.795
372.198
409.17
393.449
294.803
317.319
329.904
334.625
335.035
333.57
332.761
331.693
331.863
331.606
332.804
333.397
335.878
337.765
342.568
347.573
358.851
375.509
412.497
409.232
322.084
334.068
343.728
350.669
357.281
362.069
367.536
371.289
376.337
379.369
384.351
386.786
392.062
394.022
400.218
402.05
410.795
413.682
430.39
426.33
)
;

boundaryField
{
    movingWall
    {
        type            fixedValue;
        value           uniform 493;
    }
    fixedWalls
    {
        type            fixedValue;
        value           uniform 293;
    }
    frontAndBack
    {
        type            empty;
    }
}


// ************************************************************************* //
