/*--------------------------------*- C++ -*----------------------------------*\
  =========                 |
  \\      /  F ield         | OpenFOAM: The Open Source CFD Toolbox
   \\    /   O peration     | Website:  https://openfoam.org
    \\  /    A nd           | Version:  8
     \\/     M anipulation  |
\*---------------------------------------------------------------------------*/
FoamFile
{
    version     2.0;
    format      ascii;
    class       volScalarField;
    location    "3.5";
    object      p;
}
// * * * * * * * * * * * * * * * * * * * * * * * * * * * * * * * * * * * * * //

dimensions      [0 2 -2 0 0 0 0];

internalField   nonuniform List<scalar> 
400
(
1.28103e-06
-0.00582781
-0.0129661
-0.0184187
-0.0204364
-0.0182428
-0.0117782
-0.00148802
0.0118331
0.027145
0.0432403
0.0588191
0.0725749
0.0833048
0.0900492
0.0922634
0.0900221
0.0842401
0.0768768
0.0710632
0.00577827
-0.000221242
-0.00580736
-0.00954626
-0.0106029
-0.00843682
-0.00297412
0.00546993
0.0162987
0.0287075
0.0417457
0.054382
0.0655825
0.0744062
0.0801166
0.0823121
0.0810735
0.077051
0.0712702
0.0653138
0.0133321
0.00503049
-0.000998729
-0.00442677
-0.00527681
-0.003268
0.00159817
0.00902337
0.0184979
0.0293451
0.0407613
0.0518656
0.0617645
0.0696325
0.0748032
0.0768743
0.0758378
0.072082
0.0658015
0.0575314
0.0201363
0.00869269
0.00122242
-0.00267216
-0.00372595
-0.00188934
0.0027271
0.00978033
0.0187761
0.0290909
0.0399879
0.05065
0.0602289
0.067912
0.0729992
0.0749975
0.0737619
0.0694521
0.0615989
0.0500983
0.0244988
0.00976979
0.000586311
-0.00399051
-0.00530598
-0.00351127
0.00117062
0.00833032
0.0174577
0.0279448
0.0390808
0.0500658
0.0600448
0.068161
0.0736223
0.0757936
0.0743649
0.0692857
0.0595214
0.0445329
0.0251747
0.00714666
-0.00380552
-0.00906079
-0.0105158
-0.00850379
-0.0033608
0.00442527
0.0143091
0.0256747
0.0378096
0.0498992
0.061044
0.0702991
0.0767305
0.0795127
0.0781347
0.0723293
0.060535
0.0418857
0.0210902
-0.000265804
-0.0129381
-0.0187129
-0.0200335
-0.0174176
-0.0113222
-0.00232371
0.00898627
0.0219719
0.0359054
0.0499402
0.063108
0.0743412
0.0825178
0.0865654
0.0857165
0.0794429
0.0656161
0.0430674
0.0111394
-0.0136217
-0.0278787
-0.0338579
-0.0346072
-0.0308612
-0.0232166
-0.012349
0.00110084
0.0164797
0.0330483
0.0499294
0.0660792
0.0802858
0.0911966
0.097426
0.0978662
0.0916319
0.0758921
0.0491122
-0.00597067
-0.0342701
-0.0498737
-0.0555523
-0.0550939
-0.0495183
-0.0395972
-0.0261171
-0.00976097
0.008819
0.0288969
0.0495893
0.0697933
0.0881504
0.103043
0.112697
0.115547
0.110188
0.0928302
0.0614073
-0.0318608
-0.0638798
-0.0804206
-0.0850109
-0.0824239
-0.0740821
-0.0609847
-0.0440404
-0.0239553
-0.00134076
0.0231416
0.048657
0.0740915
0.0979682
0.118392
0.133122
0.139985
0.136814
0.118437
0.0819298
-0.0686711
-0.104607
-0.121348
-0.123594
-0.117519
-0.10513
-0.0877221
-0.0663293
-0.0416408
-0.0141594
0.0156018
0.0469493
0.0788518
0.10979
0.13762
0.159582
0.172723
0.173774
0.155517
0.113567
-0.119406
-0.159361
-0.174918
-0.172761
-0.161151
-0.142933
-0.119763
-0.0927807
-0.0625811
-0.0294513
0.00636945
0.0444698
0.0840514
0.123699
0.161132
0.193082
0.215664
0.224073
0.208047
0.160629
-0.188632
-0.232246
-0.243942
-0.233951
-0.213698
-0.187158
-0.156376
-0.122505
-0.0859015
-0.0464757
-0.00401796
0.0415353
0.0898387
0.139826
0.189315
0.234686
0.271071
0.291661
0.281739
0.229772
-0.283978
-0.329308
-0.331835
-0.308283
-0.274712
-0.236443
-0.195767
-0.153613
-0.109843
-0.0637484
-0.0144411
0.0388603
0.0965511
0.158273
0.222371
0.285285
0.341394
0.381572
0.384911
0.331831
-0.419322
-0.459674
-0.442353
-0.395795
-0.342132
-0.287742
-0.234618
-0.182932
-0.131612
-0.0789876
-0.0232167
0.0374726
0.10455
0.178835
0.259859
0.344968
0.428613
0.499697
0.529672
0.485389
-0.620534
-0.636746
-0.578679
-0.494195
-0.411243
-0.33566
-0.267782
-0.20598
-0.147539
-0.0893851
-0.0284282
0.0383461
0.113805
0.200469
0.299973
0.412023
0.533027
0.651773
0.732769
0.722393
-0.935926
-0.878517
-0.741743
-0.59795
-0.474394
-0.372661
-0.28887
-0.217764
-0.153955
-0.0924655
-0.028719
0.0416939
0.123262
0.220716
0.338924
0.482153
0.651995
0.84134
1.01527
1.0975
-1.47642
-1.20663
-0.920505
-0.691389
-0.517306
-0.387545
-0.290062
-0.213339
-0.148125
-0.087217
-0.0245791
0.0454559
0.128936
0.233069
0.367102
0.542676
0.771291
1.05932
1.40329
1.73014
-2.53965
-1.63055
-1.04444
-0.71096
-0.495752
-0.352094
-0.254532
-0.183584
-0.126171
-0.0735966
-0.0192706
0.0427853
0.119211
0.218781
0.354811
0.547982
0.826391
1.23658
1.91168
2.92419
-4.36667
-2.04464
-0.973543
-0.563182
-0.357847
-0.240148
-0.170121
-0.123784
-0.0874827
-0.0535118
-0.016656
0.027659
0.0846058
0.161728
0.27241
0.442097
0.718217
1.22571
2.41103
4.84853
)
;

boundaryField
{
    movingWall
    {
        type            zeroGradient;
    }
    fixedWalls
    {
        type            zeroGradient;
    }
    frontAndBack
    {
        type            empty;
    }
}


// ************************************************************************* //
