/*--------------------------------*- C++ -*----------------------------------*\
  =========                 |
  \\      /  F ield         | OpenFOAM: The Open Source CFD Toolbox
   \\    /   O peration     | Website:  https://openfoam.org
    \\  /    A nd           | Version:  8
     \\/     M anipulation  |
\*---------------------------------------------------------------------------*/
FoamFile
{
    version     2.0;
    format      ascii;
    class       volScalarField;
    location    "7.1";
    object      p;
}
// * * * * * * * * * * * * * * * * * * * * * * * * * * * * * * * * * * * * * //

dimensions      [0 2 -2 0 0 0 0];

internalField   nonuniform List<scalar> 
400
(
3.14714e-07
-0.00582944
-0.0129679
-0.0184205
-0.0204382
-0.0182446
-0.0117801
-0.00148983
0.0118313
0.0271432
0.0432385
0.0588173
0.072573
0.0833029
0.0900473
0.0922615
0.0900203
0.0842383
0.076875
0.0710614
0.00577663
-0.000222986
-0.00580913
-0.00954804
-0.0106047
-0.00843867
-0.00297599
0.00546807
0.0162969
0.0287058
0.0417439
0.0543802
0.0655807
0.0744043
0.0801147
0.0823102
0.0810717
0.0770492
0.0712684
0.0653121
0.0133303
0.00502869
-0.00100051
-0.00442854
-0.00527859
-0.00326981
0.00159631
0.00902149
0.018496
0.0293433
0.0407595
0.0518638
0.0617628
0.0696306
0.0748013
0.0768724
0.0758359
0.0720802
0.0657997
0.0575296
0.0201345
0.00869086
0.0012206
-0.00267395
-0.00372772
-0.00189111
0.00272529
0.00977846
0.0187742
0.029089
0.039986
0.0506482
0.0602271
0.0679102
0.0729974
0.0749957
0.07376
0.0694503
0.0615971
0.0500965
0.024497
0.00976795
0.000584455
-0.00399234
-0.00530778
-0.00351304
0.00116885
0.0083285
0.0174558
0.0279429
0.0390789
0.050064
0.060043
0.0681592
0.0736205
0.0757918
0.074363
0.0692838
0.0595195
0.044531
0.0251729
0.00714483
-0.00380739
-0.00906266
-0.0105177
-0.00850559
-0.00336256
0.0044235
0.0143073
0.0256729
0.0378077
0.0498973
0.0610422
0.0702973
0.0767288
0.079511
0.0781329
0.0723275
0.0605332
0.0418839
0.0210884
-0.000267609
-0.0129399
-0.0187148
-0.0200354
-0.0174195
-0.011324
-0.00232546
0.0089845
0.0219701
0.0359035
0.0499383
0.0631061
0.0743393
0.082516
0.0865636
0.0857148
0.0794411
0.0656143
0.0430655
0.0111376
-0.0136235
-0.0278805
-0.0338598
-0.0346091
-0.0308631
-0.0232185
-0.0123508
0.00109908
0.016478
0.0330465
0.0499275
0.0660773
0.0802839
0.0911948
0.0974241
0.0978644
0.0916301
0.0758903
0.0491104
-0.00597253
-0.0342719
-0.0498755
-0.0555541
-0.0550957
-0.0495202
-0.0395991
-0.0261189
-0.00976277
0.00881724
0.0288951
0.0495875
0.0697915
0.0881486
0.103042
0.112695
0.115545
0.110186
0.0928284
0.0614054
-0.0318627
-0.0638816
-0.0804224
-0.0850127
-0.0824257
-0.074084
-0.0609866
-0.0440423
-0.0239571
-0.00134256
0.0231399
0.0486552
0.0740897
0.0979663
0.11839
0.13312
0.139983
0.136812
0.118435
0.081928
-0.068673
-0.104609
-0.12135
-0.123596
-0.117521
-0.105132
-0.0877239
-0.0663312
-0.0416427
-0.0141612
0.0155999
0.0469475
0.0788501
0.109788
0.137618
0.15958
0.172721
0.173772
0.155515
0.113565
-0.119408
-0.159363
-0.17492
-0.172762
-0.161153
-0.142934
-0.119764
-0.0927826
-0.062583
-0.0294532
0.00636758
0.044468
0.0840496
0.123697
0.161131
0.19308
0.215663
0.224071
0.208045
0.160627
-0.188634
-0.232247
-0.243944
-0.233953
-0.213699
-0.18716
-0.156378
-0.122506
-0.0859033
-0.0464776
-0.00401984
0.0415335
0.0898368
0.139824
0.189314
0.234684
0.271069
0.291659
0.281737
0.22977
-0.28398
-0.32931
-0.331837
-0.308285
-0.274713
-0.236445
-0.195769
-0.153615
-0.109845
-0.0637502
-0.0144429
0.0388584
0.0965493
0.158272
0.222369
0.285283
0.341392
0.38157
0.384909
0.331829
-0.419323
-0.459676
-0.442355
-0.395797
-0.342134
-0.287744
-0.23462
-0.182934
-0.131614
-0.0789894
-0.0232185
0.0374708
0.104549
0.178833
0.259857
0.344966
0.428612
0.499695
0.52967
0.485387
-0.620536
-0.636748
-0.578681
-0.494197
-0.411245
-0.335662
-0.267784
-0.205981
-0.14754
-0.0893869
-0.02843
0.0383443
0.113803
0.200468
0.299971
0.412021
0.533025
0.651771
0.732768
0.722392
-0.935928
-0.878519
-0.741745
-0.597952
-0.474396
-0.372663
-0.288872
-0.217766
-0.153957
-0.0924674
-0.0287208
0.0416921
0.12326
0.220714
0.338922
0.482151
0.651993
0.841338
1.01527
1.0975
-1.47643
-1.20663
-0.920506
-0.691391
-0.517308
-0.387547
-0.290064
-0.21334
-0.148127
-0.0872188
-0.024581
0.0454541
0.128934
0.233068
0.3671
0.542675
0.77129
1.05931
1.40328
1.73014
-2.53965
-1.63055
-1.04444
-0.710962
-0.495753
-0.352096
-0.254534
-0.183586
-0.126172
-0.0735984
-0.0192724
0.0427835
0.119209
0.218779
0.354809
0.54798
0.826389
1.23658
1.91167
2.92419
-4.36667
-2.04464
-0.973545
-0.563184
-0.357849
-0.240149
-0.170122
-0.123786
-0.0874845
-0.0535136
-0.0166579
0.0276572
0.084604
0.161726
0.272408
0.442095
0.718215
1.22571
2.41103
4.84853
)
;

boundaryField
{
    movingWall
    {
        type            zeroGradient;
    }
    fixedWalls
    {
        type            zeroGradient;
    }
    frontAndBack
    {
        type            empty;
    }
}


// ************************************************************************* //
