/*--------------------------------*- C++ -*----------------------------------*\
  =========                 |
  \\      /  F ield         | OpenFOAM: The Open Source CFD Toolbox
   \\    /   O peration     | Website:  https://openfoam.org
    \\  /    A nd           | Version:  8
     \\/     M anipulation  |
\*---------------------------------------------------------------------------*/
FoamFile
{
    version     2.0;
    format      ascii;
    class       volScalarField;
    location    "5.2";
    object      p;
}
// * * * * * * * * * * * * * * * * * * * * * * * * * * * * * * * * * * * * * //

dimensions      [0 2 -2 0 0 0 0];

internalField   nonuniform List<scalar> 
400
(
6.55386e-07
-0.00582886
-0.0129673
-0.0184198
-0.0204376
-0.018244
-0.0117795
-0.00148924
0.0118319
0.0271439
0.0432392
0.058818
0.0725737
0.0833035
0.0900479
0.0922621
0.090021
0.084239
0.0768757
0.0710621
0.0057772
-0.000222388
-0.00580851
-0.00954738
-0.010604
-0.00843799
-0.00297535
0.00546867
0.0162975
0.0287064
0.0417446
0.0543809
0.0655814
0.074405
0.0801153
0.0823108
0.0810723
0.0770498
0.0712691
0.0653128
0.013331
0.0050293
-0.000999918
-0.00442792
-0.00527792
-0.0032691
0.00159701
0.00902214
0.0184966
0.0293439
0.0407601
0.0518645
0.0617635
0.0696314
0.074802
0.076873
0.0758365
0.0720807
0.0658003
0.0575303
0.0201352
0.00869149
0.00122119
-0.00267337
-0.0037271
-0.00189043
0.00272601
0.00977917
0.0187749
0.0290896
0.0399866
0.0506488
0.0602278
0.0679109
0.0729981
0.0749964
0.0737606
0.0694509
0.0615977
0.0500972
0.0244977
0.00976862
0.00058508
-0.00399176
-0.0053072
-0.00351241
0.00116954
0.00832924
0.0174566
0.0279436
0.0390795
0.0500645
0.0600436
0.0681599
0.0736212
0.0757926
0.0743637
0.0692845
0.0595202
0.0445316
0.0251736
0.00714553
-0.00380671
-0.00906204
-0.0105171
-0.00850502
-0.00336193
0.0044242
0.014308
0.0256736
0.0378083
0.0498979
0.0610427
0.0702978
0.0767294
0.0795117
0.0781336
0.0723282
0.0605338
0.0418845
0.021089
-0.000266915
-0.0129392
-0.0187141
-0.0200348
-0.0174189
-0.0113234
-0.00232483
0.00898521
0.0219709
0.0359042
0.0499389
0.0631067
0.0743399
0.0825166
0.0865642
0.0857154
0.0794418
0.065615
0.0430662
0.0111382
-0.0136228
-0.0278798
-0.033859
-0.0346084
-0.0308625
-0.0232179
-0.0123503
0.00109971
0.0164787
0.0330473
0.0499283
0.066078
0.0802845
0.0911954
0.0974247
0.097865
0.0916308
0.075891
0.0491111
-0.00597196
-0.0342712
-0.0498748
-0.0555534
-0.055095
-0.0495195
-0.0395985
-0.0261184
-0.00976221
0.00881786
0.0288958
0.0495883
0.0697922
0.0881492
0.103042
0.112696
0.115545
0.110187
0.092829
0.0614061
-0.0318621
-0.063881
-0.0804218
-0.085012
-0.082425
-0.0740832
-0.0609859
-0.0440417
-0.0239566
-0.001342
0.0231405
0.0486559
0.0740904
0.0979671
0.118391
0.133121
0.139983
0.136813
0.118436
0.0819286
-0.0686724
-0.104608
-0.121349
-0.123595
-0.11752
-0.105131
-0.0877232
-0.0663305
-0.0416421
-0.0141607
0.0156005
0.0469481
0.0788507
0.109788
0.137619
0.159581
0.172722
0.173773
0.155515
0.113566
-0.119407
-0.159362
-0.17492
-0.172762
-0.161153
-0.142934
-0.119764
-0.0927819
-0.0625823
-0.0294526
0.00636816
0.0444685
0.0840502
0.123698
0.161131
0.193081
0.215663
0.224072
0.208046
0.160628
-0.188633
-0.232247
-0.243943
-0.233953
-0.213699
-0.187159
-0.156377
-0.122506
-0.0859026
-0.0464769
-0.0040192
0.0415341
0.0898374
0.139825
0.189314
0.234685
0.27107
0.29166
0.281738
0.229771
-0.283979
-0.329309
-0.331836
-0.308284
-0.274713
-0.236444
-0.195769
-0.153614
-0.109844
-0.0637495
-0.0144422
0.038859
0.0965499
0.158272
0.22237
0.285284
0.341393
0.381571
0.38491
0.33183
-0.419323
-0.459675
-0.442354
-0.395796
-0.342133
-0.287743
-0.23462
-0.182934
-0.131613
-0.0789887
-0.0232178
0.0374714
0.104549
0.178834
0.259857
0.344966
0.428612
0.499696
0.529671
0.485388
-0.620535
-0.636747
-0.57868
-0.494196
-0.411244
-0.335662
-0.267784
-0.205981
-0.14754
-0.0893862
-0.0284293
0.038345
0.113803
0.200468
0.299972
0.412022
0.533026
0.651772
0.732768
0.722392
-0.935927
-0.878518
-0.741744
-0.597951
-0.474396
-0.372662
-0.288871
-0.217765
-0.153956
-0.0924668
-0.0287202
0.0416928
0.123261
0.220715
0.338923
0.482152
0.651994
0.841339
1.01527
1.0975
-1.47643
-1.20663
-0.920506
-0.69139
-0.517307
-0.387546
-0.290064
-0.21334
-0.148126
-0.0872182
-0.0245803
0.0454547
0.128935
0.233068
0.3671
0.542675
0.77129
1.05931
1.40328
1.73014
-2.53965
-1.63055
-1.04444
-0.710961
-0.495753
-0.352096
-0.254533
-0.183586
-0.126172
-0.0735978
-0.0192718
0.0427841
0.119209
0.21878
0.354809
0.547981
0.82639
1.23658
1.91167
2.92419
-4.36667
-2.04464
-0.973545
-0.563183
-0.357849
-0.240149
-0.170122
-0.123785
-0.0874838
-0.0535129
-0.0166572
0.0276578
0.0846046
0.161727
0.272408
0.442096
0.718216
1.22571
2.41103
4.84853
)
;

boundaryField
{
    movingWall
    {
        type            zeroGradient;
    }
    fixedWalls
    {
        type            zeroGradient;
    }
    frontAndBack
    {
        type            empty;
    }
}


// ************************************************************************* //
