/*--------------------------------*- C++ -*----------------------------------*\
  =========                 |
  \\      /  F ield         | OpenFOAM: The Open Source CFD Toolbox
   \\    /   O peration     | Website:  https://openfoam.org
    \\  /    A nd           | Version:  8
     \\/     M anipulation  |
\*---------------------------------------------------------------------------*/
FoamFile
{
    version     2.0;
    format      ascii;
    class       volScalarField;
    location    "5.2";
    object      T;
}
// * * * * * * * * * * * * * * * * * * * * * * * * * * * * * * * * * * * * * //

dimensions      [0 0 0 1 0 0 0];

internalField   nonuniform List<scalar> 
400
(
293.738
295.167
296.545
297.928
299.348
300.766
302.105
303.285
304.245
304.94
305.329
305.378
305.058
304.349
303.247
301.775
299.998
298.021
295.978
293.977
295.266
299.652
303.906
308.214
312.641
317.018
321.056
324.503
327.197
329.035
329.945
329.864
328.736
326.522
323.214
318.87
313.648
307.836
301.809
295.889
296.891
304.391
311.677
319.06
326.586
333.867
340.38
345.756
349.814
352.474
353.683
353.384
351.5
347.946
342.66
335.664
327.153
317.574
307.585
297.766
298.604
309.347
319.794
330.331
340.868
350.725
359.185
365.888
370.766
373.86
375.205
374.78
372.479
368.121
361.484
352.41
340.977
327.706
313.604
299.697
300.381
314.447
328.113
341.752
354.996
366.822
376.429
383.646
388.667
391.755
393.095
392.729
390.522
386.152
379.144
368.978
355.353
338.623
320.153
301.766
302.203
319.623
336.485
353.023
368.439
381.371
391.119
397.912
402.35
404.979
406.158
406.001
404.352
400.766
394.491
384.525
369.896
350.349
327.368
304.01
304.056
324.822
344.771
363.848
380.686
393.671
402.477
407.967
411.222
413.055
413.952
414.073
413.269
411.029
406.403
397.936
383.803
362.605
335.29
306.432
305.936
330.024
352.879
373.963
391.291
403.217
410.136
413.731
415.516
416.443
417.027
417.439
417.549
416.869
414.403
408.408
396.257
374.991
343.976
309.025
307.831
335.141
360.607
383.088
399.933
409.805
414.235
415.768
416.134
416.247
416.561
417.222
418.139
418.921
418.677
415.634
406.623
387.03
353.515
311.804
309.771
340.29
368.081
391.14
406.456
413.547
415.337
415.018
414.235
413.73
413.84
414.671
416.181
418.12
419.821
419.721
414.51
398.19
363.939
314.841
311.712
345.2
374.781
397.75
410.823
414.838
414.237
412.501
410.917
410.006
409.975
410.89
412.75
415.452
418.612
421.067
419.794
407.952
375.141
318.365
313.765
350.272
381.396
403.322
413.36
414.256
411.772
409.12
407.062
405.933
405.815
406.748
408.746
411.82
415.87
420.241
422.591
415.898
386.834
322.895
315.854
355.044
386.786
407.119
414.005
412.34
408.7
405.584
403.308
402.099
401.938
402.857
404.857
407.993
412.39
417.897
423.206
421.771
398.563
329.298
318.272
360.072
392.473
410.337
413.805
410.03
405.723
402.407
400.084
398.872
398.7
399.601
401.557
404.566
408.889
414.733
422.084
425.489
409.771
338.627
320.57
365.153
396.511
411.534
412.145
407.311
403.063
399.923
397.745
396.589
396.412
397.27
399.18
401.978
405.986
411.459
419.787
427.136
419.887
351.668
324.661
370.232
401.228
412.961
411.21
405.99
401.982
399.021
396.984
395.878
395.685
396.387
398.171
400.629
404.217
408.791
417.013
426.954
428.428
368.367
325.762
376.234
403.699
412.091
409.401
404.941
401.742
399.557
398.155
397.387
397.437
397.92
399.411
401.154
404.158
407.489
414.699
425.407
435.078
387.471
334.444
380.532
406.445
413.105
411.665
408.935
406.74
404.988
404.053
403.15
403.168
402.947
403.889
404.399
406.608
408.465
414.324
423.502
439.866
406.853
328.746
384.437
402.949
408.762
410.341
409.843
409.798
408.856
409.102
408.333
409.103
408.576
410.031
409.861
412.469
413.228
418.941
424.06
443.953
424.782
336.999
364.762
379.754
388.513
395.975
400.763
406.242
409.457
414.259
416.479
421.115
422.493
427.346
427.892
433.479
433.163
440.669
439.457
453.415
441.982
)
;

boundaryField
{
    movingWall
    {
        type            fixedValue;
        value           uniform 493;
    }
    fixedWalls
    {
        type            fixedValue;
        value           uniform 293;
    }
    frontAndBack
    {
        type            empty;
    }
}


// ************************************************************************* //
