/*--------------------------------*- C++ -*----------------------------------*\
  =========                 |
  \\      /  F ield         | OpenFOAM: The Open Source CFD Toolbox
   \\    /   O peration     | Website:  https://openfoam.org
    \\  /    A nd           | Version:  8
     \\/     M anipulation  |
\*---------------------------------------------------------------------------*/
FoamFile
{
    version     2.0;
    format      ascii;
    class       volScalarField;
    location    "5.3";
    object      p;
}
// * * * * * * * * * * * * * * * * * * * * * * * * * * * * * * * * * * * * * //

dimensions      [0 2 -2 0 0 0 0];

internalField   nonuniform List<scalar> 
400
(
6.30274e-07
-0.00582892
-0.0129673
-0.0184199
-0.0204376
-0.018244
-0.0117795
-0.0014893
0.0118318
0.0271437
0.0432391
0.0588179
0.0725737
0.0833036
0.090048
0.0922621
0.0900209
0.0842388
0.0768755
0.0710619
0.00577718
-0.000222431
-0.00580858
-0.00954748
-0.0106041
-0.00843801
-0.00297532
0.0054687
0.0162974
0.0287063
0.0417444
0.0543807
0.0655813
0.074405
0.0801154
0.0823108
0.0810723
0.0770498
0.0712689
0.0653126
0.013331
0.00502929
-0.000999962
-0.00442802
-0.00527805
-0.0032692
0.00159699
0.00902219
0.0184966
0.0293439
0.0407601
0.0518643
0.0617633
0.0696313
0.074802
0.0768731
0.0758366
0.0720808
0.0658003
0.0575301
0.0201351
0.00869149
0.00122119
-0.00267342
-0.00372722
-0.00189058
0.0027259
0.00977916
0.018775
0.0290896
0.0399866
0.0506487
0.0602276
0.0679107
0.072998
0.0749964
0.0737607
0.0694509
0.0615977
0.0500971
0.0244976
0.0097686
0.000585114
-0.00399174
-0.00530726
-0.00351255
0.00116937
0.00832912
0.0174565
0.0279437
0.0390796
0.0500646
0.0600435
0.0681597
0.0736211
0.0757924
0.0743637
0.0692845
0.0595202
0.0445316
0.0251734
0.00714546
-0.0038067
-0.00906198
-0.0105171
-0.00850508
-0.00336209
0.00442402
0.0143079
0.0256736
0.0378084
0.0498979
0.0610428
0.0702978
0.0767293
0.0795115
0.0781335
0.0723281
0.0605338
0.0418845
0.0210889
-0.000267037
-0.0129392
-0.0187141
-0.0200347
-0.0174189
-0.0113235
-0.002325
0.00898501
0.0219707
0.0359042
0.049939
0.0631068
0.0743399
0.0825165
0.0865641
0.0857153
0.0794417
0.0656149
0.0430662
0.0111381
-0.013623
-0.0278799
-0.0338591
-0.0346084
-0.0308624
-0.0232179
-0.0123503
0.00109954
0.0164785
0.0330471
0.0499282
0.066078
0.0802846
0.0911954
0.0974247
0.0978649
0.0916306
0.0758909
0.049111
-0.00597193
-0.0342713
-0.049875
-0.0555535
-0.055095
-0.0495195
-0.0395984
-0.0261183
-0.00976227
0.0088177
0.0288956
0.0495881
0.0697922
0.0881493
0.103042
0.112696
0.115545
0.110187
0.0928289
0.061406
-0.031862
-0.0638811
-0.0804219
-0.0850122
-0.0824251
-0.0740833
-0.0609858
-0.0440416
-0.0239565
-0.00134205
0.0231403
0.0486557
0.0740903
0.097967
0.118391
0.133121
0.139983
0.136813
0.118435
0.0819285
-0.0686723
-0.104608
-0.121349
-0.123595
-0.117521
-0.105132
-0.0877232
-0.0663304
-0.041642
-0.0141606
0.0156005
0.046948
0.0788506
0.109788
0.137619
0.159581
0.172722
0.173773
0.155515
0.113566
-0.119407
-0.159362
-0.17492
-0.172762
-0.161153
-0.142934
-0.119764
-0.0927819
-0.0625823
-0.0294525
0.00636821
0.0444685
0.0840501
0.123698
0.161131
0.193081
0.215663
0.224072
0.208046
0.160628
-0.188633
-0.232247
-0.243943
-0.233952
-0.213699
-0.187159
-0.156377
-0.122506
-0.0859026
-0.0464769
-0.00401915
0.0415341
0.0898374
0.139825
0.189314
0.234684
0.27107
0.29166
0.281738
0.229771
-0.283979
-0.329309
-0.331836
-0.308284
-0.274713
-0.236444
-0.195769
-0.153614
-0.109844
-0.0637496
-0.0144423
0.0388591
0.0965499
0.158272
0.22237
0.285284
0.341393
0.381571
0.38491
0.33183
-0.419323
-0.459675
-0.442354
-0.395796
-0.342133
-0.287743
-0.23462
-0.182934
-0.131613
-0.0789889
-0.0232179
0.0374714
0.104549
0.178834
0.259857
0.344966
0.428612
0.499696
0.529671
0.485388
-0.620535
-0.636747
-0.578681
-0.494196
-0.411244
-0.335661
-0.267784
-0.205981
-0.14754
-0.0893863
-0.0284294
0.0383449
0.113803
0.200468
0.299972
0.412022
0.533026
0.651772
0.732768
0.722392
-0.935927
-0.878518
-0.741745
-0.597951
-0.474396
-0.372662
-0.288871
-0.217765
-0.153956
-0.0924668
-0.0287203
0.0416927
0.12326
0.220715
0.338923
0.482152
0.651994
0.841339
1.01527
1.0975
-1.47643
-1.20663
-0.920506
-0.69139
-0.517307
-0.387546
-0.290064
-0.21334
-0.148126
-0.0872182
-0.0245804
0.0454547
0.128935
0.233068
0.3671
0.542675
0.77129
1.05931
1.40328
1.73014
-2.53965
-1.63055
-1.04444
-0.710961
-0.495753
-0.352096
-0.254533
-0.183586
-0.126172
-0.0735978
-0.0192718
0.0427841
0.119209
0.21878
0.354809
0.547981
0.82639
1.23658
1.91167
2.92419
-4.36667
-2.04464
-0.973545
-0.563183
-0.357849
-0.240149
-0.170122
-0.123785
-0.0874839
-0.053513
-0.0166573
0.0276578
0.0846046
0.161727
0.272408
0.442096
0.718216
1.22571
2.41103
4.84853
)
;

boundaryField
{
    movingWall
    {
        type            zeroGradient;
    }
    fixedWalls
    {
        type            zeroGradient;
    }
    frontAndBack
    {
        type            empty;
    }
}


// ************************************************************************* //
