/*--------------------------------*- C++ -*----------------------------------*\
  =========                 |
  \\      /  F ield         | OpenFOAM: The Open Source CFD Toolbox
   \\    /   O peration     | Website:  https://openfoam.org
    \\  /    A nd           | Version:  8
     \\/     M anipulation  |
\*---------------------------------------------------------------------------*/
FoamFile
{
    version     2.0;
    format      ascii;
    class       volScalarField;
    location    "0.4";
    object      T;
}
// * * * * * * * * * * * * * * * * * * * * * * * * * * * * * * * * * * * * * //

dimensions      [0 0 0 1 0 0 0];

internalField   nonuniform List<scalar> 
400
(
292.974
292.955
292.978
293.005
293.018
293.021
293.023
293.024
293.026
293.03
293.033
293.036
293.038
293.036
293.032
293.026
293.017
293.01
293.004
293.001
292.953
292.927
292.978
293.03
293.052
293.056
293.059
293.065
293.074
293.087
293.105
293.124
293.141
293.15
293.143
293.118
293.082
293.046
293.02
293.005
292.971
292.964
293.013
293.056
293.069
293.072
293.078
293.093
293.121
293.173
293.257
293.37
293.491
293.576
293.58
293.486
293.328
293.171
293.068
293.017
292.996
293.007
293.042
293.066
293.071
293.075
293.093
293.14
293.253
293.487
293.883
294.42
294.976
295.362
295.402
295.03
294.363
293.682
293.242
293.051
293.01
293.033
293.054
293.064
293.066
293.082
293.144
293.329
293.791
294.726
296.217
298.09
299.911
301.138
301.298
300.173
298.006
295.594
293.899
293.173
293.017
293.043
293.056
293.058
293.068
293.128
293.355
294.028
295.61
298.495
302.597
307.242
311.46
314.28
314.851
312.589
307.581
301.195
296.01
293.57
293.019
293.043
293.046
293.055
293.1
293.309
294.044
296.036
300.15
306.606
314.515
322.464
329.282
334.069
335.827
333.313
325.556
313.408
301.32
294.621
293.023
293.07
293.09
293.081
293.214
293.826
295.745
300.249
308.04
318.086
328.282
337.301
344.978
351.298
355.491
355.588
348.636
332.656
311.568
296.815
293.003
292.939
292.934
293.097
293.514
294.949
298.834
306.373
316.716
326.912
334.917
341.319
347.673
354.824
362.342
367.996
367.191
353.806
326.506
300.397
293.086
293.357
293.35
293.34
294.102
296.767
302.764
311.892
320.944
326.604
329.362
332.116
336.939
344.648
355.085
366.482
374.129
369.219
342.767
305.008
292.873
292.423
292.653
293.32
294.922
298.897
305.925
313.686
317.986
317.944
316.982
318.165
322.52
330.539
342.519
357.609
372.014
376.423
356.357
309.997
293.332
294.2
293.929
294.142
296.052
300.591
306.856
311.094
310.554
307.493
305.847
306.952
310.894
318.38
330.479
347.459
366.677
378.918
366.612
315.362
292.455
291.25
292.244
293.701
296.504
301.086
305.433
306.174
303.121
299.804
298.601
299.393
302.181
308.09
318.975
336.418
359.424
379.202
375.446
321.977
294.167
295.886
294.881
295.294
297.49
300.821
302.801
301.447
298.12
295.624
294.761
295.01
296.481
300.322
308.83
324.888
349.918
376.78
383.366
330.72
290.831
289.339
291.568
293.58
296.278
298.902
299.716
298.143
295.732
294.115
293.471
293.426
294.043
296.058
301.731
314.784
339.459
371.661
389.54
342.09
297.203
298.179
296.262
296.307
297.349
298.339
298.164
296.782
295.133
293.971
293.39
293.206
293.506
294.466
297.883
307.296
329.466
364.609
393.693
356.269
286.056
286.911
289.922
291.928
293.668
294.801
295.112
294.787
294.229
293.713
293.486
293.339
293.692
294.403
296.97
303.487
321.684
356.56
395.677
372.269
303.437
301.319
298.938
297.89
297.235
296.743
296.216
295.549
295.117
294.569
294.549
294.433
295.215
296.207
299.353
305.001
319.559
350.234
396.111
388.042
278.915
281.431
283.623
285.229
286.909
288.179
289.989
291.274
293.348
294.824
297.382
299.308
302.788
305.821
311.54
318.139
331.556
353.608
398.678
402.656
315.764
319.786
325.501
330.595
336.425
341.175
346.821
351.068
356.55
360.261
365.741
368.957
374.743
377.607
384.346
387.365
396.891
401.849
419.989
419.487
)
;

boundaryField
{
    movingWall
    {
        type            fixedValue;
        value           uniform 493;
    }
    fixedWalls
    {
        type            fixedValue;
        value           uniform 293;
    }
    frontAndBack
    {
        type            empty;
    }
}


// ************************************************************************* //
