/*--------------------------------*- C++ -*----------------------------------*\
  =========                 |
  \\      /  F ield         | OpenFOAM: The Open Source CFD Toolbox
   \\    /   O peration     | Website:  https://openfoam.org
    \\  /    A nd           | Version:  8
     \\/     M anipulation  |
\*---------------------------------------------------------------------------*/
FoamFile
{
    version     2.0;
    format      ascii;
    class       volScalarField;
    location    "4.9";
    object      p;
}
// * * * * * * * * * * * * * * * * * * * * * * * * * * * * * * * * * * * * * //

dimensions      [0 2 -2 0 0 0 0];

internalField   nonuniform List<scalar> 
400
(
7.38713e-07
-0.00582873
-0.0129671
-0.0184197
-0.0204374
-0.0182438
-0.0117793
-0.00148904
0.0118321
0.0271439
0.0432393
0.0588181
0.0725738
0.0833038
0.0900482
0.0922623
0.0900211
0.0842391
0.0768758
0.0710622
0.00577735
-0.000222221
-0.00580835
-0.00954726
-0.0106039
-0.00843786
-0.00297517
0.00546889
0.0162977
0.0287065
0.0417447
0.054381
0.0655815
0.0744051
0.0801155
0.082311
0.0810725
0.07705
0.0712692
0.0653128
0.0133311
0.00502948
-0.000999733
-0.00442777
-0.00527781
-0.00326902
0.00159713
0.00902232
0.0184968
0.0293441
0.0407603
0.0518646
0.0617635
0.0696314
0.0748021
0.0768732
0.0758368
0.072081
0.0658005
0.0575304
0.0201353
0.00869166
0.00122139
-0.00267317
-0.00372695
-0.00189034
0.00272608
0.00977929
0.0187751
0.0290898
0.0399868
0.050649
0.0602279
0.067911
0.0729982
0.0749965
0.0737608
0.0694511
0.0615979
0.0500973
0.0244978
0.00976876
0.000585271
-0.00399154
-0.00530699
-0.00351227
0.00116962
0.0083293
0.0174567
0.0279438
0.0390798
0.0500648
0.0600438
0.06816
0.0736213
0.0757926
0.0743639
0.0692846
0.0595204
0.0445318
0.0251737
0.00714563
-0.00380657
-0.00906184
-0.0105169
-0.00850481
-0.0033618
0.00442427
0.0143081
0.0256737
0.0378085
0.0498981
0.061043
0.070298
0.0767295
0.0795117
0.0781337
0.0723283
0.060534
0.0418847
0.0210892
-0.000266818
-0.0129391
-0.018714
-0.0200345
-0.0174187
-0.0113232
-0.0023247
0.00898527
0.0219709
0.0359043
0.0499391
0.063107
0.0743401
0.0825168
0.0865644
0.0857155
0.0794419
0.0656151
0.0430664
0.0111384
-0.0136227
-0.0278797
-0.0338589
-0.0346083
-0.0308622
-0.0232176
-0.0123501
0.00109984
0.0164787
0.0330473
0.0499284
0.0660781
0.0802847
0.0911956
0.0974249
0.0978652
0.0916309
0.0758911
0.0491112
-0.00597172
-0.0342711
-0.0498747
-0.0555533
-0.0550949
-0.0495194
-0.0395983
-0.0261181
-0.00976199
0.008818
0.0288959
0.0495883
0.0697923
0.0881494
0.103042
0.112696
0.115546
0.110187
0.0928291
0.0614062
-0.0318619
-0.0638808
-0.0804216
-0.0850119
-0.0824249
-0.0740832
-0.0609857
-0.0440414
-0.0239563
-0.00134177
0.0231406
0.048656
0.0740905
0.0979672
0.118391
0.133121
0.139984
0.136813
0.118436
0.0819288
-0.0686722
-0.104608
-0.121349
-0.123595
-0.11752
-0.105131
-0.0877231
-0.0663303
-0.0416418
-0.0141604
0.0156007
0.0469483
0.0788508
0.109789
0.137619
0.159581
0.172722
0.173773
0.155516
0.113566
-0.119407
-0.159362
-0.17492
-0.172762
-0.161152
-0.142934
-0.119764
-0.0927818
-0.0625822
-0.0294524
0.0063684
0.0444688
0.0840504
0.123698
0.161131
0.193081
0.215663
0.224072
0.208046
0.160628
-0.188633
-0.232247
-0.243943
-0.233952
-0.213699
-0.187159
-0.156377
-0.122506
-0.0859025
-0.0464767
-0.00401901
0.0415343
0.0898376
0.139825
0.189314
0.234685
0.27107
0.29166
0.281738
0.229771
-0.283979
-0.329309
-0.331836
-0.308284
-0.274713
-0.236444
-0.195768
-0.153614
-0.109844
-0.0637494
-0.0144421
0.0388592
0.0965501
0.158272
0.22237
0.285284
0.341393
0.381571
0.38491
0.33183
-0.419323
-0.459675
-0.442354
-0.395796
-0.342133
-0.287743
-0.234619
-0.182933
-0.131613
-0.0789886
-0.0232177
0.0374716
0.104549
0.178834
0.259858
0.344966
0.428612
0.499696
0.529671
0.485388
-0.620535
-0.636747
-0.57868
-0.494196
-0.411244
-0.335661
-0.267783
-0.205981
-0.14754
-0.0893861
-0.0284292
0.0383451
0.113804
0.200468
0.299972
0.412022
0.533026
0.651772
0.732768
0.722392
-0.935927
-0.878518
-0.741744
-0.597951
-0.474396
-0.372662
-0.288871
-0.217765
-0.153956
-0.0924666
-0.02872
0.0416929
0.123261
0.220715
0.338923
0.482152
0.651994
0.841339
1.01527
1.0975
-1.47643
-1.20663
-0.920506
-0.69139
-0.517307
-0.387546
-0.290063
-0.21334
-0.148126
-0.087218
-0.0245802
0.0454549
0.128935
0.233068
0.3671
0.542675
0.77129
1.05932
1.40328
1.73014
-2.53965
-1.63055
-1.04444
-0.710961
-0.495753
-0.352095
-0.254533
-0.183585
-0.126172
-0.0735976
-0.0192716
0.0427843
0.11921
0.21878
0.35481
0.547981
0.82639
1.23658
1.91167
2.92419
-4.36667
-2.04464
-0.973544
-0.563183
-0.357848
-0.240149
-0.170122
-0.123785
-0.0874837
-0.0535128
-0.0166571
0.027658
0.0846048
0.161727
0.272409
0.442096
0.718216
1.22571
2.41103
4.84853
)
;

boundaryField
{
    movingWall
    {
        type            zeroGradient;
    }
    fixedWalls
    {
        type            zeroGradient;
    }
    frontAndBack
    {
        type            empty;
    }
}


// ************************************************************************* //
