/*--------------------------------*- C++ -*----------------------------------*\
  =========                 |
  \\      /  F ield         | OpenFOAM: The Open Source CFD Toolbox
   \\    /   O peration     | Website:  https://openfoam.org
    \\  /    A nd           | Version:  8
     \\/     M anipulation  |
\*---------------------------------------------------------------------------*/
FoamFile
{
    version     2.0;
    format      ascii;
    class       volScalarField;
    location    "4.9";
    object      T;
}
// * * * * * * * * * * * * * * * * * * * * * * * * * * * * * * * * * * * * * //

dimensions      [0 0 0 1 0 0 0];

internalField   nonuniform List<scalar> 
400
(
293.728
295.139
296.502
297.873
299.281
300.69
302.021
303.194
304.15
304.842
305.232
305.284
304.969
304.267
303.175
301.715
299.95
297.987
295.957
293.97
295.236
299.568
303.776
308.047
312.442
316.791
320.804
324.233
326.915
328.75
329.663
329.591
328.48
326.289
323.009
318.697
313.512
307.738
301.751
295.87
296.841
304.25
311.462
318.785
326.257
333.493
339.968
345.316
349.358
352.014
353.231
352.95
351.095
347.58
342.341
335.397
326.942
317.423
307.494
297.736
298.534
309.151
319.495
329.949
340.414
350.21
358.62
365.287
370.144
373.233
374.59
374.192
371.934
367.631
361.06
352.058
340.702
327.509
313.486
299.658
300.292
314.197
327.733
341.267
354.421
366.169
375.712
382.88
387.872
390.952
392.306
391.976
389.825
385.53
378.61
368.54
355.015
338.383
320.009
301.719
302.093
319.32
336.026
352.437
367.742
380.576
390.239
396.967
401.361
403.974
405.167
405.053
403.478
399.99
393.83
383.99
369.487
350.063
327.199
303.955
303.927
324.466
344.232
363.159
379.862
392.722
401.416
406.815
410.007
411.813
412.721
412.896
412.184
410.068
405.592
397.287
383.316
362.271
335.095
306.369
305.787
329.615
352.26
373.168
390.331
402.097
408.869
412.341
414.038
414.924
415.518
415.993
416.217
415.694
413.415
407.626
395.68
374.602
343.754
308.954
307.661
334.677
359.904
382.179
398.822
408.491
412.731
414.104
414.356
414.414
414.735
415.469
416.522
417.495
417.484
414.696
405.941
386.58
353.262
311.725
309.581
339.775
367.295
390.11
405.178
412.016
413.568
413.049
412.124
411.546
411.66
412.573
414.243
416.41
418.391
418.602
413.705
397.67
363.653
314.754
311.497
344.617
373.896
396.584
409.359
413.066
412.177
410.2
408.444
407.442
407.41
408.416
410.459
413.424
416.914
419.741
418.846
407.35
374.818
318.269
313.531
349.647
380.423
402.015
411.695
412.224
409.4
406.469
404.21
402.973
402.849
403.879
406.079
409.45
413.877
418.68
421.478
415.201
386.468
322.787
315.582
354.316
385.69
405.646
412.119
410.033
406.009
402.58
400.08
398.748
398.575
399.595
401.81
405.269
410.083
416.08
421.907
420.964
398.148
329.176
317.989
359.327
391.283
408.705
411.698
407.453
402.728
399.077
396.515
395.171
394.981
395.982
398.158
401.503
406.269
412.646
420.58
424.555
409.297
338.486
320.212
364.243
395.163
409.708
409.807
404.48
399.809
396.334
393.921
392.634
392.437
393.387
395.506
398.632
403.084
409.11
418.067
426.059
419.344
351.5
324.328
369.34
399.785
410.987
408.699
402.992
398.583
395.315
393.068
391.844
391.631
392.411
394.376
397.126
401.121
406.228
415.087
425.724
427.804
368.16
325.259
375.087
402.062
409.945
406.766
401.893
398.372
395.951
394.39
393.537
393.572
394.115
395.743
397.714
401.044
404.828
412.62
424.03
434.365
387.213
334.047
379.469
404.8
410.992
409.172
406.15
403.74
401.838
400.804
399.851
399.858
399.674
400.698
401.353
403.771
405.944
412.241
422.035
439.071
406.534
328.087
383.047
401.225
406.819
408.238
407.631
407.505
406.516
406.728
405.953
406.723
406.225
407.719
407.626
410.33
411.256
417.19
422.699
443.14
424.41
336.716
364.164
379.015
387.702
395.117
399.882
405.341
408.553
413.346
415.574
420.208
421.602
426.459
427.035
432.635
432.373
439.918
438.82
452.865
441.613
)
;

boundaryField
{
    movingWall
    {
        type            fixedValue;
        value           uniform 493;
    }
    fixedWalls
    {
        type            fixedValue;
        value           uniform 293;
    }
    frontAndBack
    {
        type            empty;
    }
}


// ************************************************************************* //
