/*--------------------------------*- C++ -*----------------------------------*\
  =========                 |
  \\      /  F ield         | OpenFOAM: The Open Source CFD Toolbox
   \\    /   O peration     | Website:  https://openfoam.org
    \\  /    A nd           | Version:  8
     \\/     M anipulation  |
\*---------------------------------------------------------------------------*/
FoamFile
{
    version     2.0;
    format      ascii;
    class       volScalarField;
    location    "7.4";
    object      p;
}
// * * * * * * * * * * * * * * * * * * * * * * * * * * * * * * * * * * * * * //

dimensions      [0 2 -2 0 0 0 0];

internalField   nonuniform List<scalar> 
400
(
2.80528e-07
-0.00582951
-0.012968
-0.0184206
-0.0204383
-0.0182447
-0.0117801
-0.00148991
0.0118312
0.027143
0.0432384
0.0588172
0.072573
0.0833029
0.0900473
0.0922615
0.0900202
0.0842382
0.0768748
0.0710612
0.00577658
-0.000223052
-0.00580922
-0.00954813
-0.0106048
-0.0084387
-0.002976
0.00546805
0.0162968
0.0287056
0.0417438
0.0543801
0.0655806
0.0744043
0.0801147
0.0823102
0.0810717
0.0770491
0.0712683
0.0653119
0.0133303
0.00502865
-0.00100059
-0.00442865
-0.00527871
-0.00326989
0.00159628
0.0090215
0.018496
0.0293433
0.0407594
0.0518637
0.0617626
0.0696306
0.0748013
0.0768724
0.0758359
0.0720801
0.0657996
0.0575295
0.0201345
0.00869083
0.00122056
-0.00267403
-0.00372785
-0.00189125
0.0027252
0.00977844
0.0187743
0.029089
0.039986
0.0506481
0.060227
0.06791
0.0729973
0.0749957
0.07376
0.0694503
0.061597
0.0500965
0.0244969
0.00976792
0.00058445
-0.00399237
-0.00530787
-0.00351318
0.0011687
0.00832841
0.0174558
0.027943
0.039079
0.050064
0.0600429
0.0681591
0.0736204
0.0757917
0.074363
0.0692838
0.0595195
0.044531
0.0251728
0.00714477
-0.00380739
-0.00906265
-0.0105177
-0.00850569
-0.00336272
0.00442335
0.0143072
0.0256728
0.0378077
0.0498973
0.0610421
0.0702972
0.0767286
0.0795108
0.0781328
0.0723274
0.0605332
0.0418838
0.0210883
-0.000267713
-0.01294
-0.0187148
-0.0200353
-0.0174195
-0.0113241
-0.00232563
0.00898434
0.02197
0.0359035
0.0499383
0.0631062
0.0743393
0.0825159
0.0865634
0.0857146
0.079441
0.0656142
0.0430655
0.0111375
-0.0136236
-0.0278806
-0.0338598
-0.0346091
-0.030863
-0.0232185
-0.0123509
0.00109891
0.0164778
0.0330464
0.0499275
0.0660773
0.0802839
0.0911948
0.0974241
0.0978643
0.09163
0.0758902
0.0491103
-0.00597256
-0.034272
-0.0498756
-0.0555542
-0.0550958
-0.0495202
-0.0395991
-0.026119
-0.00976288
0.00881708
0.028895
0.0495874
0.0697914
0.0881486
0.103042
0.112695
0.115545
0.110186
0.0928282
0.0614054
-0.0318627
-0.0638817
-0.0804225
-0.0850128
-0.0824258
-0.074084
-0.0609865
-0.0440422
-0.0239572
-0.00134265
0.0231397
0.048655
0.0740896
0.0979663
0.11839
0.13312
0.139983
0.136812
0.118435
0.0819279
-0.068673
-0.104609
-0.12135
-0.123596
-0.117521
-0.105132
-0.087724
-0.0663311
-0.0416426
-0.0141612
0.0155999
0.0469474
0.0788499
0.109788
0.137618
0.15958
0.172721
0.173772
0.155515
0.113565
-0.119408
-0.159363
-0.17492
-0.172762
-0.161153
-0.142934
-0.119765
-0.0927826
-0.062583
-0.0294532
0.00636757
0.0444679
0.0840495
0.123697
0.161131
0.19308
0.215662
0.224071
0.208045
0.160627
-0.188634
-0.232247
-0.243944
-0.233953
-0.2137
-0.18716
-0.156378
-0.122507
-0.0859033
-0.0464776
-0.00401983
0.0415335
0.0898368
0.139824
0.189313
0.234684
0.271069
0.291659
0.281737
0.22977
-0.28398
-0.32931
-0.331837
-0.308285
-0.274713
-0.236445
-0.195769
-0.153615
-0.109845
-0.0637503
-0.014443
0.0388584
0.0965493
0.158272
0.222369
0.285283
0.341392
0.38157
0.384909
0.331829
-0.419323
-0.459676
-0.442355
-0.395797
-0.342133
-0.287744
-0.23462
-0.182934
-0.131614
-0.0789895
-0.0232186
0.0374707
0.104549
0.178833
0.259857
0.344966
0.428612
0.499695
0.52967
0.485387
-0.620536
-0.636748
-0.578681
-0.494197
-0.411245
-0.335662
-0.267784
-0.205981
-0.14754
-0.089387
-0.0284301
0.0383442
0.113803
0.200468
0.299971
0.412021
0.533025
0.651771
0.732767
0.722391
-0.935928
-0.878519
-0.741745
-0.597952
-0.474396
-0.372663
-0.288872
-0.217766
-0.153957
-0.0924674
-0.0287209
0.041692
0.12326
0.220714
0.338922
0.482151
0.651993
0.841338
1.01527
1.0975
-1.47643
-1.20663
-0.920506
-0.691391
-0.517308
-0.387547
-0.290064
-0.21334
-0.148127
-0.0872188
-0.024581
0.045454
0.128934
0.233067
0.3671
0.542675
0.77129
1.05931
1.40328
1.73014
-2.53965
-1.63055
-1.04444
-0.710962
-0.495754
-0.352096
-0.254534
-0.183586
-0.126172
-0.0735985
-0.0192724
0.0427834
0.119209
0.218779
0.354809
0.54798
0.826389
1.23658
1.91167
2.92419
-4.36667
-2.04464
-0.973545
-0.563184
-0.357849
-0.24015
-0.170122
-0.123786
-0.0874846
-0.0535137
-0.0166579
0.0276571
0.0846039
0.161726
0.272408
0.442095
0.718215
1.22571
2.41103
4.84853
)
;

boundaryField
{
    movingWall
    {
        type            zeroGradient;
    }
    fixedWalls
    {
        type            zeroGradient;
    }
    frontAndBack
    {
        type            empty;
    }
}


// ************************************************************************* //
