/*--------------------------------*- C++ -*----------------------------------*\
  =========                 |
  \\      /  F ield         | OpenFOAM: The Open Source CFD Toolbox
   \\    /   O peration     | Website:  https://openfoam.org
    \\  /    A nd           | Version:  8
     \\/     M anipulation  |
\*---------------------------------------------------------------------------*/
FoamFile
{
    version     2.0;
    format      ascii;
    class       volScalarField;
    location    "7.4";
    object      T;
}
// * * * * * * * * * * * * * * * * * * * * * * * * * * * * * * * * * * * * * //

dimensions      [0 0 0 1 0 0 0];

internalField   nonuniform List<scalar> 
400
(
293.781
295.29
296.736
298.177
299.648
301.113
302.491
303.703
304.685
305.39
305.778
305.815
305.471
304.726
303.58
302.056
300.219
298.179
296.072
294.008
295.396
300.024
304.483
308.966
313.549
318.064
322.217
325.752
328.502
330.362
331.259
331.131
329.925
327.603
324.163
319.667
314.278
308.288
302.079
295.978
297.111
305.015
312.641
320.312
328.091
335.595
342.292
347.801
351.939
354.622
355.798
355.412
353.39
349.656
344.152
336.909
328.133
318.277
308.006
297.905
298.915
310.222
321.141
332.074
342.958
353.118
361.823
368.702
373.684
376.804
378.097
377.543
375.042
370.422
363.475
354.059
342.265
328.626
314.154
299.879
300.782
315.571
329.837
343.979
357.664
369.874
379.797
387.247
392.413
395.546
396.824
396.29
393.813
389.089
381.663
371.041
356.947
339.751
320.823
301.986
302.694
320.993
338.584
355.733
371.691
385.106
395.265
402.382
407.032
409.744
410.861
410.494
408.498
404.446
397.619
387.056
371.822
351.693
328.159
304.268
304.638
326.439
347.245
367.05
384.55
398.146
407.496
413.432
416.995
418.965
419.805
419.673
418.428
415.589
410.25
401.011
386.106
364.185
336.207
306.727
306.611
331.886
355.732
377.677
395.815
408.518
416.154
420.349
422.557
423.685
424.222
424.332
423.898
422.467
419.096
412.12
398.993
376.83
345.027
309.359
308.604
337.266
363.863
387.35
405.182
416.038
421.393
423.703
424.622
425.011
425.291
425.599
425.86
425.721
424.359
420.092
409.862
389.162
354.708
312.177
310.639
342.657
371.736
395.987
412.512
420.831
423.778
424.43
424.342
424.195
424.288
424.717
425.455
426.295
426.643
425.047
418.336
400.657
365.289
315.255
312.699
347.893
378.91
403.253
417.776
423.288
424.092
423.528
422.786
422.319
422.294
422.763
423.738
425.16
426.725
427.393
424.303
410.807
376.668
318.823
314.843
353.168
385.954
409.509
421.289
423.972
423.141
421.857
420.782
420.183
420.098
420.55
421.564
423.192
425.411
427.694
427.888
419.206
388.564
323.405
317.111
358.423
391.935
414.109
423.008
423.395
421.626
420.046
418.874
418.268
418.17
418.59
419.533
421.088
423.452
426.589
429.398
425.606
400.531
329.875
319.581
363.547
398.089
418.1
423.882
422.405
420.141
418.476
417.33
416.767
416.683
417.089
417.964
419.323
421.478
424.73
429.264
429.931
412.018
339.295
322.237
369.406
402.881
420.236
423.348
420.922
418.757
417.266
416.252
415.739
415.667
416.066
416.941
418.121
419.95
422.725
428.009
432.262
422.464
352.467
326.213
374.418
408.07
422.394
423.261
420.427
418.389
416.941
415.95
415.421
415.333
415.648
416.535
417.546
419.128
421.102
426.231
432.817
431.39
369.349
328.109
381.621
411.465
422.348
422.048
419.613
418
416.985
416.368
416.02
416.142
416.327
417.142
417.761
419.159
420.273
424.653
431.975
438.466
388.695
336.305
385.544
414.271
423.217
423.627
422.322
421.178
420.164
419.72
419.066
419.136
418.727
419.271
419.07
420.253
420.568
424.299
430.501
443.646
408.36
331.841
390.985
411.121
418.008
420.369
420.41
420.758
420.054
420.465
419.736
420.501
419.836
421.107
420.563
422.706
422.656
427.302
430.55
447.823
426.546
338.325
367.572
383.234
392.338
400.03
404.931
410.505
413.742
418.585
420.775
425.422
426.723
431.559
431.966
437.487
436.913
444.235
442.485
456.022
443.728
)
;

boundaryField
{
    movingWall
    {
        type            fixedValue;
        value           uniform 493;
    }
    fixedWalls
    {
        type            fixedValue;
        value           uniform 293;
    }
    frontAndBack
    {
        type            empty;
    }
}


// ************************************************************************* //
