/*--------------------------------*- C++ -*----------------------------------*\
  =========                 |
  \\      /  F ield         | OpenFOAM: The Open Source CFD Toolbox
   \\    /   O peration     | Website:  https://openfoam.org
    \\  /    A nd           | Version:  8
     \\/     M anipulation  |
\*---------------------------------------------------------------------------*/
FoamFile
{
    version     2.0;
    format      ascii;
    class       volScalarField;
    location    "8.6";
    object      T;
}
// * * * * * * * * * * * * * * * * * * * * * * * * * * * * * * * * * * * * * //

dimensions      [0 0 0 1 0 0 0];

internalField   nonuniform List<scalar> 
400
(
293.793
295.324
296.789
298.247
299.733
301.211
302.601
303.822
304.811
305.518
305.906
305.939
305.588
304.834
303.674
302.135
300.282
298.224
296.099
294.017
295.432
300.128
304.645
309.178
313.805
318.361
322.548
326.109
328.875
330.741
331.635
331.493
330.264
327.912
324.435
319.894
314.457
308.416
302.156
296.004
297.172
305.189
312.912
320.666
328.518
336.088
342.838
348.386
352.548
355.238
356.405
355.994
353.933
350.146
344.579
337.266
328.413
318.478
308.126
297.945
299.001
310.467
321.52
332.568
343.554
353.802
362.579
369.51
374.523
377.651
378.929
378.338
375.78
371.085
364.048
354.533
342.635
328.89
314.312
299.931
300.894
315.886
330.324
344.613
358.427
370.75
380.765
388.285
393.494
396.64
397.901
397.318
394.763
389.936
382.39
371.636
357.406
340.075
321.016
302.049
302.832
321.378
339.178
356.506
372.624
386.181
396.461
403.672
408.385
411.122
412.222
411.794
409.697
405.51
398.523
387.787
372.378
352.08
328.387
304.342
304.802
326.895
347.948
367.965
385.66
399.436
408.946
415.014
418.667
420.677
421.501
421.295
419.923
416.91
411.364
401.899
386.771
364.64
336.472
306.813
306.801
332.413
356.545
378.742
397.118
410.05
417.896
422.267
424.598
425.786
426.31
426.331
425.739
424.089
420.455
413.194
399.784
377.361
345.33
309.455
308.822
337.869
364.793
388.575
406.698
417.843
423.467
426.006
427.087
427.557
427.828
428.033
428.102
427.695
426.007
421.383
410.799
389.778
355.053
312.284
310.886
343.33
372.783
397.383
414.263
422.942
426.228
427.165
427.281
427.238
427.327
427.639
428.151
428.669
428.623
426.592
419.444
401.37
365.679
315.374
312.98
348.66
380.095
404.841
419.79
425.74
426.956
426.736
426.241
425.905
425.882
426.22
426.936
427.984
429.082
429.228
425.609
411.633
377.109
318.956
315.15
353.994
387.265
411.298
423.588
426.795
426.449
425.567
424.782
424.339
424.264
424.574
425.299
426.502
428.186
429.858
429.424
420.164
389.064
323.552
317.47
359.389
393.417
416.132
425.622
426.611
425.392
424.264
423.418
422.99
422.91
423.182
423.815
424.905
426.671
429.116
431.194
426.717
401.1
330.041
319.955
364.543
399.708
420.351
426.811
426.009
424.346
423.167
422.37
421.999
421.94
422.2
422.756
423.628
425.146
427.637
431.349
431.218
412.668
339.488
322.714
370.627
404.72
422.761
426.606
424.889
423.337
422.334
421.664
421.342
421.3
421.564
422.133
422.834
424.021
426.004
430.398
433.749
423.21
352.697
326.658
375.622
410.049
425.134
426.77
424.638
423.181
422.18
421.498
421.14
421.084
421.284
421.905
422.488
423.478
424.688
428.911
434.518
432.248
369.633
328.782
383.172
413.713
425.328
425.73
423.892
422.746
422.077
421.692
421.469
421.613
421.709
422.325
422.611
423.536
423.998
427.548
433.881
439.448
389.049
336.839
386.989
416.539
426.157
427.11
426.223
425.389
424.592
424.293
423.712
423.797
423.334
423.76
423.35
424.23
424.092
427.2
432.534
444.741
408.796
332.731
392.872
413.484
420.687
423.278
423.478
423.943
423.308
423.768
423.052
423.816
423.111
424.328
423.676
425.683
425.396
429.731
432.433
448.944
427.056
338.706
368.38
384.236
393.442
401.2
406.135
411.738
414.981
419.837
422.018
426.669
427.948
432.779
433.146
438.647
437.999
445.267
443.361
456.776
444.233
)
;

boundaryField
{
    movingWall
    {
        type            fixedValue;
        value           uniform 493;
    }
    fixedWalls
    {
        type            fixedValue;
        value           uniform 293;
    }
    frontAndBack
    {
        type            empty;
    }
}


// ************************************************************************* //
