/*--------------------------------*- C++ -*----------------------------------*\
  =========                 |
  \\      /  F ield         | OpenFOAM: The Open Source CFD Toolbox
   \\    /   O peration     | Website:  https://openfoam.org
    \\  /    A nd           | Version:  8
     \\/     M anipulation  |
\*---------------------------------------------------------------------------*/
FoamFile
{
    version     2.0;
    format      ascii;
    class       volScalarField;
    location    "6.7";
    object      T;
}
// * * * * * * * * * * * * * * * * * * * * * * * * * * * * * * * * * * * * * //

dimensions      [0 0 0 1 0 0 0];

internalField   nonuniform List<scalar> 
400
(
293.771
295.262
296.692
298.12
299.578
301.032
302.401
303.605
304.582
305.285
305.673
305.712
305.374
304.638
303.502
301.99
300.168
298.143
296.05
294.001
295.366
299.939
304.35
308.792
313.338
317.82
321.946
325.46
328.196
330.051
330.951
330.834
329.646
327.35
323.941
319.48
314.13
308.182
302.016
295.958
297.061
304.871
312.418
320.022
327.74
335.191
341.844
347.321
351.44
354.118
355.302
354.935
352.946
349.254
343.801
336.617
327.903
318.112
307.907
297.873
298.843
310.021
320.829
331.668
342.47
352.557
361.204
368.041
372.997
376.111
377.416
376.892
374.439
369.88
363.007
353.671
341.962
328.41
314.025
299.836
300.69
315.311
329.437
343.46
357.039
369.158
379.004
386.399
391.53
394.651
395.944
395.449
393.036
388.396
381.069
370.555
356.571
339.485
320.666
301.934
302.581
320.676
338.096
355.1
370.928
384.227
394.288
401.327
405.926
408.618
409.75
409.432
407.518
403.577
396.881
386.459
371.367
351.376
327.973
304.208
304.503
326.064
346.669
366.299
383.641
397.091
406.311
412.141
415.63
417.567
418.42
418.348
417.208
414.511
409.341
400.284
385.562
363.812
335.991
306.658
306.455
331.453
355.066
376.805
394.749
407.266
414.731
418.783
420.89
421.97
422.518
422.699
422.394
421.142
417.986
411.242
398.347
376.396
344.779
309.28
308.424
336.771
363.101
386.347
403.943
414.564
419.698
421.823
422.61
422.933
423.221
423.613
424.03
424.11
423.014
419.037
409.096
388.658
354.426
312.089
310.437
342.105
370.879
394.845
411.081
419.106
421.777
422.198
421.944
421.711
421.808
422.333
423.255
424.356
425.027
423.787
417.431
400.074
364.97
315.157
312.469
347.264
377.941
401.955
416.131
421.285
421.754
420.91
419.967
419.394
419.367
419.942
421.129
422.857
424.802
425.894
423.236
410.132
376.307
318.715
314.591
352.49
384.882
408.048
419.411
421.668
420.442
418.831
417.52
416.794
416.701
417.268
418.518
420.491
423.147
425.927
426.634
418.424
388.155
323.284
316.818
357.631
390.722
412.456
420.874
420.771
418.555
416.607
415.17
414.419
414.306
414.845
416.042
417.976
420.825
424.528
427.931
424.699
400.066
329.738
319.275
362.731
396.765
416.263
421.492
419.466
416.712
414.651
413.223
412.504
412.398
412.923
414.058
415.813
418.487
422.357
427.562
428.88
411.487
339.137
321.847
368.407
401.378
418.175
420.689
417.687
415.022
413.136
411.841
411.174
411.076
411.586
412.71
414.278
416.63
420.05
426.059
431.048
421.855
352.278
325.849
373.433
406.453
420.158
420.399
416.994
414.483
412.671
411.429
410.761
410.648
411.056
412.159
413.517
415.581
418.177
424.044
431.428
430.689
369.117
327.557
380.353
409.629
419.916
419.044
416.124
414.13
412.834
412.028
411.579
411.684
411.94
412.918
413.807
415.59
417.235
422.291
430.418
437.665
388.406
335.867
384.362
412.419
420.818
420.786
419.14
417.744
416.554
415.992
415.278
415.335
414.972
415.611
415.581
417.009
417.693
421.932
428.842
442.751
408.004
331.113
389.442
409.19
415.82
417.993
417.905
418.159
417.397
417.769
417.03
417.796
417.163
418.478
418.024
420.277
420.419
425.32
429.012
446.907
426.129
338.013
366.91
382.414
391.436
399.073
403.947
409.498
412.73
417.563
419.759
424.404
425.723
430.562
431.002
436.539
436.026
443.391
441.769
455.406
443.316
)
;

boundaryField
{
    movingWall
    {
        type            fixedValue;
        value           uniform 493;
    }
    fixedWalls
    {
        type            fixedValue;
        value           uniform 293;
    }
    frontAndBack
    {
        type            empty;
    }
}


// ************************************************************************* //
