/*--------------------------------*- C++ -*----------------------------------*\
  =========                 |
  \\      /  F ield         | OpenFOAM: The Open Source CFD Toolbox
   \\    /   O peration     | Website:  https://openfoam.org
    \\  /    A nd           | Version:  8
     \\/     M anipulation  |
\*---------------------------------------------------------------------------*/
FoamFile
{
    version     2.0;
    format      ascii;
    class       volScalarField;
    location    "5.5";
    object      p;
}
// * * * * * * * * * * * * * * * * * * * * * * * * * * * * * * * * * * * * * //

dimensions      [0 2 -2 0 0 0 0];

internalField   nonuniform List<scalar> 
400
(
5.81452e-07
-0.005829
-0.0129674
-0.01842
-0.0204377
-0.0182441
-0.0117796
-0.00148942
0.0118317
0.0271436
0.0432391
0.0588179
0.0725736
0.0833035
0.0900478
0.092262
0.0900208
0.0842388
0.0768755
0.0710619
0.00577709
-0.000222529
-0.00580868
-0.00954755
-0.0106042
-0.00843808
-0.00297542
0.00546858
0.0162973
0.0287062
0.0417444
0.0543807
0.0655813
0.0744049
0.0801153
0.0823107
0.0810722
0.0770496
0.0712689
0.0653126
0.0133309
0.00502918
-0.00100007
-0.00442812
-0.00527812
-0.00326926
0.00159692
0.00902209
0.0184965
0.0293437
0.0407599
0.0518642
0.0617633
0.0696312
0.0748019
0.076873
0.0758365
0.0720807
0.0658001
0.0575301
0.0201351
0.0086914
0.00122108
-0.00267353
-0.00372731
-0.00189064
0.00272586
0.0097791
0.0187749
0.0290895
0.0399865
0.0506486
0.0602276
0.0679107
0.072998
0.0749963
0.0737606
0.0694508
0.0615975
0.050097
0.0244976
0.00976852
0.000585009
-0.00399187
-0.00530738
-0.00351265
0.00116932
0.00832909
0.0174565
0.0279436
0.0390795
0.0500644
0.0600434
0.0681596
0.073621
0.0757924
0.0743636
0.0692844
0.0595201
0.0445315
0.0251733
0.00714539
-0.00380678
-0.0090621
-0.0105172
-0.00850521
-0.00336218
0.00442397
0.0143079
0.0256735
0.0378083
0.0498978
0.0610426
0.0702977
0.0767292
0.0795114
0.0781335
0.0723281
0.0605337
0.0418844
0.0210888
-0.0002671
-0.0129393
-0.0187142
-0.0200348
-0.017419
-0.0113236
-0.00232509
0.00898497
0.0219707
0.0359042
0.0499389
0.0631067
0.0743398
0.0825164
0.086564
0.0857152
0.0794416
0.0656148
0.0430661
0.011138
-0.0136231
-0.0278799
-0.0338591
-0.0346085
-0.0308625
-0.023218
-0.0123505
0.00109945
0.0164784
0.0330471
0.0499282
0.0660779
0.0802845
0.0911953
0.0974246
0.0978648
0.0916306
0.0758908
0.049111
-0.00597206
-0.0342714
-0.049875
-0.0555536
-0.0550951
-0.0495196
-0.0395986
-0.0261185
-0.00976241
0.00881761
0.0288956
0.0495881
0.0697921
0.0881492
0.103042
0.112696
0.115545
0.110186
0.0928288
0.061406
-0.0318621
-0.0638812
-0.080422
-0.0850122
-0.0824251
-0.0740833
-0.0609859
-0.0440417
-0.0239567
-0.00134218
0.0231402
0.0486556
0.0740903
0.0979669
0.118391
0.13312
0.139983
0.136813
0.118435
0.0819284
-0.0686724
-0.104608
-0.12135
-0.123595
-0.117521
-0.105132
-0.0877233
-0.0663305
-0.0416421
-0.0141608
0.0156003
0.0469479
0.0788505
0.109788
0.137619
0.15958
0.172722
0.173773
0.155515
0.113566
-0.119407
-0.159362
-0.17492
-0.172762
-0.161153
-0.142934
-0.119764
-0.092782
-0.0625824
-0.0294526
0.00636807
0.0444684
0.08405
0.123698
0.161131
0.193081
0.215663
0.224072
0.208046
0.160628
-0.188633
-0.232247
-0.243943
-0.233953
-0.213699
-0.187159
-0.156377
-0.122506
-0.0859027
-0.0464769
-0.00401926
0.041534
0.0898373
0.139824
0.189314
0.234684
0.27107
0.291659
0.281738
0.229771
-0.283979
-0.329309
-0.331836
-0.308284
-0.274713
-0.236444
-0.195769
-0.153614
-0.109845
-0.0637496
-0.0144423
0.038859
0.0965498
0.158272
0.22237
0.285283
0.341393
0.381571
0.38491
0.33183
-0.419323
-0.459675
-0.442354
-0.395796
-0.342133
-0.287743
-0.23462
-0.182934
-0.131613
-0.0789889
-0.023218
0.0374713
0.104549
0.178834
0.259857
0.344966
0.428612
0.499696
0.529671
0.485387
-0.620535
-0.636747
-0.578681
-0.494196
-0.411244
-0.335662
-0.267784
-0.205981
-0.14754
-0.0893864
-0.0284295
0.0383448
0.113803
0.200468
0.299972
0.412022
0.533026
0.651772
0.732768
0.722392
-0.935927
-0.878518
-0.741745
-0.597951
-0.474396
-0.372662
-0.288871
-0.217766
-0.153956
-0.0924669
-0.0287204
0.0416926
0.12326
0.220715
0.338923
0.482152
0.651994
0.841339
1.01527
1.0975
-1.47643
-1.20663
-0.920506
-0.691391
-0.517308
-0.387546
-0.290064
-0.21334
-0.148127
-0.0872183
-0.0245805
0.0454546
0.128934
0.233068
0.3671
0.542675
0.77129
1.05931
1.40328
1.73014
-2.53965
-1.63055
-1.04444
-0.710961
-0.495753
-0.352096
-0.254533
-0.183586
-0.126172
-0.0735979
-0.0192719
0.042784
0.119209
0.21878
0.354809
0.547981
0.82639
1.23658
1.91167
2.92419
-4.36667
-2.04464
-0.973545
-0.563183
-0.357849
-0.240149
-0.170122
-0.123786
-0.087484
-0.0535131
-0.0166573
0.0276577
0.0846045
0.161727
0.272408
0.442096
0.718216
1.22571
2.41103
4.84853
)
;

boundaryField
{
    movingWall
    {
        type            zeroGradient;
    }
    fixedWalls
    {
        type            zeroGradient;
    }
    frontAndBack
    {
        type            empty;
    }
}


// ************************************************************************* //
