/*--------------------------------*- C++ -*----------------------------------*\
  =========                 |
  \\      /  F ield         | OpenFOAM: The Open Source CFD Toolbox
   \\    /   O peration     | Website:  https://openfoam.org
    \\  /    A nd           | Version:  8
     \\/     M anipulation  |
\*---------------------------------------------------------------------------*/
FoamFile
{
    version     2.0;
    format      ascii;
    class       volScalarField;
    location    "5.5";
    object      T;
}
// * * * * * * * * * * * * * * * * * * * * * * * * * * * * * * * * * * * * * //

dimensions      [0 0 0 1 0 0 0];

internalField   nonuniform List<scalar> 
400
(
293.746
295.191
296.582
297.977
299.406
300.833
302.179
303.365
304.329
305.026
305.414
305.461
305.137
304.421
303.31
301.829
300.041
298.051
295.996
293.983
295.291
299.725
304.018
308.359
312.816
317.219
321.278
324.741
327.445
329.288
330.196
330.105
328.962
326.728
323.395
319.022
313.768
307.922
301.861
295.906
296.934
304.513
311.864
319.302
326.875
334.197
340.744
346.145
350.218
352.882
354.085
353.769
351.859
348.271
342.944
335.901
327.339
317.708
307.665
297.793
298.665
309.518
320.055
330.666
341.267
351.181
359.687
366.422
371.319
374.417
375.752
375.302
372.964
368.556
361.861
352.722
341.221
327.881
313.709
299.732
300.459
314.665
328.446
342.179
355.505
367.402
377.067
384.327
389.375
392.47
393.799
393.401
391.143
386.706
379.619
369.368
355.655
338.837
320.28
301.808
302.298
319.888
336.889
353.541
369.057
382.079
391.902
398.756
403.232
405.877
407.044
406.847
405.133
401.46
395.081
385.003
370.259
350.603
327.518
304.059
304.169
325.135
345.246
364.458
381.418
394.516
403.423
408.996
412.308
414.166
415.052
415.126
414.239
411.887
407.128
398.515
384.237
362.903
335.463
306.488
306.067
330.382
353.425
374.669
392.147
404.217
411.268
414.975
416.838
417.803
418.377
418.733
418.741
417.921
415.285
409.107
396.773
375.338
344.175
309.088
307.98
335.549
361.228
383.896
400.923
410.978
415.58
417.257
417.725
417.89
418.198
418.792
419.587
420.197
419.745
416.472
407.233
387.432
353.74
311.874
309.938
340.743
368.777
392.056
407.597
414.915
416.92
416.782
416.128
415.689
415.796
416.552
417.919
419.653
421.101
420.722
415.23
398.655
364.194
314.919
311.902
345.715
375.565
398.789
412.13
416.423
416.083
414.564
413.137
412.308
412.278
413.11
414.806
417.27
420.133
422.255
420.641
408.489
375.429
318.452
313.971
350.825
382.26
404.488
414.849
416.077
413.899
411.501
409.625
408.593
408.482
409.325
411.141
413.947
417.657
421.638
423.586
416.52
387.16
322.991
316.094
355.687
387.761
408.435
415.694
414.41
411.116
408.284
406.211
405.113
404.964
405.791
407.596
410.439
414.459
419.526
424.368
422.492
398.934
329.407
318.522
360.733
393.534
411.796
415.693
412.345
408.415
405.403
403.297
402.204
402.048
402.858
404.615
407.32
411.242
416.605
423.431
426.323
410.194
338.753
320.888
365.961
397.713
413.168
414.242
409.854
405.99
403.154
401.19
400.152
399.994
400.768
402.488
404.988
408.594
413.566
421.328
428.099
420.372
351.819
324.956
371.025
402.516
414.73
413.464
408.686
405.04
402.358
400.513
399.513
399.34
399.971
401.59
403.781
406.999
411.093
418.74
428.055
428.985
368.552
326.207
377.253
405.161
414.013
411.766
407.68
404.774
402.804
401.547
400.855
400.919
401.346
402.713
404.249
406.957
409.878
416.563
426.639
435.715
387.702
334.797
381.479
407.915
414.999
413.902
411.436
409.435
407.82
406.976
406.119
406.146
405.89
406.759
407.138
409.157
410.728
416.192
424.815
440.576
407.137
329.332
385.675
404.489
410.5
412.223
411.825
411.852
410.954
411.23
410.468
411.237
410.684
412.105
411.865
414.387
414.994
420.508
425.278
444.681
425.114
337.25
365.294
380.412
389.235
396.74
401.549
407.045
410.264
415.073
417.288
421.926
423.289
428.138
428.658
434.233
433.868
441.34
440.027
453.906
442.311
)
;

boundaryField
{
    movingWall
    {
        type            fixedValue;
        value           uniform 493;
    }
    fixedWalls
    {
        type            fixedValue;
        value           uniform 293;
    }
    frontAndBack
    {
        type            empty;
    }
}


// ************************************************************************* //
